Shape,formula_pretty,formula_anonymous,volume,density,density_atomic,energy_per_atom,band_gap,efermi,is_gap_direct,is_metal,is_magnetic,ordering,total_magnetization,theoretical
1,H6PbCI3N,ABCD3E6,1026.1202354860395,4.013168831769407,21.37750490595916,-4.380502976458334,1.7627,1.10745881,1,0,0,0,0.0035264,1
1,H6PbCI3N,ABCD3E6,1024.2076067089151,4.020663115296324,21.3376584731024,-4.368673130416666,1.7574999999999998,1.27437828,1,0,0,0,0.0028307,1
6,H6PbCI3N,ABCD3E6,1087.4095035363189,3.786976050244645,22.65436465700664,-4.367132025625,1.8271,0.83180443,0,0,0,0,0.002057,1
5,H6PbCI3N,ABCD3E6,269.0381845849923,3.826588550109266,22.419848715416023,-4.3739675025,1.6778,0.89527319,0,0,0,0,0.0001899,1
1,H6PbCI3N,ABCD3E6,1020.6311913161112,4.034752006148544,21.26314981908565,-4.37995830125,1.8147,2.84093429,1,0,0,0,0.0005286,1
3,K2LiAlF6,ABC2D6,359.2139893794985,3.135711012038716,11.973799645983284,-5.404456537333333,7.6292,-1.7482375,1,0,0,0,1.5e-06,0
0,K2LiAlF6,ABC2D6,126.97869640984916,2.956903517474036,12.697869640984916,-5.40280753,7.4418,-1.62568889,1,0,0,0,0.0,0
3,K2LiAlF6,ABC2D6,243.0266465595304,3.089897831154736,12.15133232797652,-5.4043401985,7.217799999999999,-1.8484315,1,0,0,0,0.0,0
4,K2LiAlF6,ABC2D6,248.41954695474385,1.5114098655326482,24.84195469547438,-3.126707538,0.0,-0.40173904,0,1,1,1,1.9938167,1
0,K2LiMoCl6,ABC2D6,255.25398197185763,2.561813034232244,25.52539819718576,-4.457310089,1.4862,1.6675,0,0,1,1,3.0004379,1
0,K2LiScCl6,ABC2D6,259.5692624864935,2.1930636266527714,25.956926248649356,-4.533384133,3.7414,-0.45291667,1,0,0,0,0.0015382,1
0,K2NaCeF6,ABC2D6,189.59657967778415,3.111752102041852,18.95965796777842,-5.561836686,0.2301999999999999,3.41666667,0,0,1,1,0.9998376,1
0,K2TlGaBr6,ABC2D6,369.4072898176063,3.738732418827015,36.94072898176063,-3.194792467,1.6,-0.30986904,0,0,0,0,0.0005233,1
0,KCaPrWO6,ABCDE6,144.47416909042047,5.745921756046205,14.447416909042047,-7.800791606,2.8049,2.1002202,1,0,0,0,0.0,1
0,KCaPrWO6,ABCDE6,157.10233597600407,5.28405428350945,15.710233597600409,-7.809152774,2.8172,1.63934421,1,0,0,0,0.0,1
1,KCaPrWO6,ABCDE6,607.660046070298,5.464484800222062,15.19150115175745,-7.855233667750001,2.8469000000000007,1.6840432,1,0,0,0,0.0,1
1,KCaTbBiO6,ABCDE6,628.4266687290597,5.740068188241569,15.710666718226491,-6.462510383250001,0.0,1.50797109,0,1,0,0,3.9999994,1
0,KCaTbBiO6,ABCDE6,161.58017611980566,5.581148653934635,16.158017611980565,-6.410662055,0.0,1.48132304,0,1,0,0,1.0000001,1
0,NaSrYSeO6,ABCDE6,130.6647912817539,4.75893629234963,13.066479128175391,-6.692188525000001,2.0769999999999995,2.71380762,0,0,0,0,0.0,1
0,NdGeO3,ABC3,62.49751342505111,7.037782720688485,12.499502685010222,-7.338424784,0.0,7.36893526,0,1,0,0,0.0001642,1
0,PbAuO3,ABC3,71.41118537597386,10.514280914279322,14.282237075194772,-4.969002936,0.0,4.09825657,0,1,0,0,0.0006575,1
0,Rb2CuBiCl6,ABC2D6,290.0149254715556,3.757091201254248,29.00149254715556,-3.741118752,1.0756,1.9740143,0,0,0,0,4.27e-05,1
0,Rb2PrAgBr6,ABC2D6,383.7685519110817,3.890494761634109,38.37685519110817,-3.79021585,3.2758,-0.57738306,0,0,0,0,0.0010273,1
4,ScMnO3,ABC3,332.2624241651375,4.434700161343278,11.075414138837916,-9.051214285666669,0.0,3.78434302,0,1,1,1,23.9999995,0
5,ScMnO3,ABC3,218.7350343435964,4.49092583781479,10.93675171717982,-9.009025804,1.7979999999999996,3.91997084,0,0,1,1,15.9997915,0
5,Sr2CeMn3O9,AB2C3D9,359.3019929041727,5.769241178341928,11.976733096805756,-8.123870523666666,0.0,4.43644363,0,1,1,1,22.0000001,1
0,Sr2NbCuO6,ABC2D6,127.64998576192431,5.563603656494341,12.764998576192433,-7.360611289,0.0,3.037822,0,1,1,1,1.8270483,1
0,SrEuCrWO6,ABCDE6,127.25028005171318,7.456639161534516,12.725028005171318,-9.100262663,0.0,5.46974627,0,1,1,3,8.7173901,1
5,SrLaNiRuO6,ABCDE6,250.7584293850537,6.387450535917764,12.537921469252684,-7.564981114999999,0.2865000000000002,5.21687452,0,0,1,1,9.9857236,1
1,UVSe3,ABC3,454.3897677010349,7.686750108045079,22.719488385051747,-7.424289673,0.0,6.60080329,0,1,1,1,20.0000002,0
0,BaNdEuVO6,ABCDE6,151.03129653261362,6.382085227390728,15.103129653261362,-8.607428105,0.0565999999999999,3.93184782,0,0,1,1,7.0000002,1
0,BaSmEuMnO6,ABCDE6,145.1499524192035,6.756393558817998,14.51499524192035,-8.390633007000002,0.0,2.21871696,0,1,1,1,9.0000003,1
0,BeGaO3,ABC3,41.51241513065125,5.069464910461347,8.30248302613025,-5.614557182,0.0,3.94280095,0,1,0,0,0.0583319,1
0,Ca2DyFeO6,ABC2D6,130.02744845666766,5.038000454115156,13.002744845666763,-7.271048076,0.3683,2.6180742,0,0,1,3,3.0000008,1
5,Ca3HoMn4O12,AB3C4D12,221.58816436594788,5.222504197542316,11.079408218297392,-7.9852573335,0.0,3.63698205,0,1,1,1,13.0007707,1
0,CaEuTiNbO6,ABCDE6,127.77142675172682,5.572910399536265,12.777142675172682,-9.314708989,0.0,5.87254706,0,1,1,1,6.6515913,1
0,CaIrO3,ABC3,61.792674200619054,7.532249004003523,12.358534840123813,-6.932980098,0.0,5.55236495,0,1,0,0,0.2740433,1
1,CaIrO3,ABC3,128.73544915681154,7.230919094170888,12.873544915681157,-6.91619666,0.0,4.06378661,0,1,1,1,2.6640903,0
1,CaIrO3,ABC3,113.08204138316108,8.231860744806733,11.308204138316109,-6.585585473,0.0,5.79127875,0,1,0,0,0.000811,0
1,CaIrO3,ABC3,228.6900073487555,8.140938278820864,11.434500367437774,-7.215037712999999,0.0,4.95910172,0,1,1,1,1.6249161,0
1,CaIrO3,ABC3,114.21872186793516,8.14993901333421,11.421872186793518,-7.239532932,0.0,5.1646301,0,1,1,1,2.0033388,0
0,Cs2NaNdF6,ABC2D6,201.7616361295801,4.502192973249622,20.17616361295801,-5.466767665,6.7399,-2.10116553,1,0,0,0,0.0007452,1
0,Cs2ScHgCl6,ABC2D6,328.0487781671275,3.665169934467941,32.804877816712754,-4.021055956,0.0,1.01589571,0,1,1,1,0.8816431,1
4,CsCdBr3,ABC3,351.63652167638946,4.580916049065491,35.16365216763894,-2.941244357,2.901,-0.58405304,1,0,0,0,0.0,0
0,CsCdBr3,ABC3,169.11875228033412,4.762385495000636,33.823750456066826,-2.90856913,0.6968000000000001,-0.48690827,0,0,0,0,2e-07,0
5,CsTlCl3,ABC3,173.7367636100523,4.240290935156971,34.74735272201046,-3.41700106,0.0,1.17001001,0,1,0,0,0.0004426,1
2,CsTlCl3,ABC3,173.73670712399235,4.240292313779439,34.74734142479848,-3.416918578,0.0,1.17776366,0,1,0,0,0.0006552,1
0,CsTlCl3,ABC3,348.56620284002724,4.226998589288455,34.85662028400272,-3.4433859050000004,1.2584,0.24192025,0,0,0,0,0.0,1
1,EuScO3,ABC3,261.33230177110755,6.224964772248111,13.066615088555375,-9.81883769,0.0,2.79928002,0,1,1,1,24.0004153,0
0,HfNpO3,ABC3,69.98673726680191,10.996944464979247,13.997347453360382,-10.68232455,0.0,9.34285579,0,1,1,1,4.9336937,1
0,K2NdCuCl6,ABC2D6,291.31538733372287,2.842675622095881,29.131538733372288,-4.300312754999999,2.4258000000000006,1.69693243,0,0,0,0,0.000655,1
1,K4Na4Mo3W5O24,A3B4C4D5E24,515.470406732801,5.925317093905336,12.886760168320029,-7.8127334585,0.1930999999999998,3.75133633,1,0,1,1,8.0006631,1
0,KCaCeBiO6,ABCDE6,161.09604862535673,5.40403895309567,16.109604862535672,-6.759489927,1.7974,2.46744342,0,0,0,0,0.0,1
1,KCaCeBiO6,ABCDE6,616.5716579726651,5.647806289531507,15.414291449316629,-6.86434358275,1.6069999999999998,2.43947998,0,0,0,0,0.0,1
0,Li3IrF6,AB3C6,124.56812839109617,4.359436029601536,12.456812839109617,-4.956116167999999,2.1887,1.21416667,1,0,0,0,0.000258,1
6,Li3IrF6,AB3C6,178.93123699962192,3.0349468105969786,17.893123699962192,-5.033409419,2.0847,0.9022905,0,0,0,0,0.000944,1
6,Li3IrF6,AB3C6,131.71356758644248,4.122937348058526,13.171356758644247,-5.077892946,2.0124,0.14614792,0,0,0,0,2.01e-05,1
0,MgMnO3,ABC3,52.132135357475256,4.05295230583769,10.426427071495052,-7.002803858,0.0,3.71225042,0,1,1,1,3.0942055,1
1,MgMnO3,ABC3,191.23146819271156,4.419545803881975,9.561573409635576,-7.416279121,0.2597,3.65007255,0,0,1,1,11.9977123,1
3,MgMnO3,ABC3,96.25948702724264,4.389989282729596,9.625948702724264,-7.493016056,1.5712999999999997,2.96879477,0,0,1,1,5.9999998,1
0,PuPtO3,ABC3,66.65422143645642,12.1345505853151,13.330844287291283,-8.654109029999999,0.0,8.17111454,0,1,1,1,5.1981661,1
0,Rb2AlAgCl6,ABC2D6,268.22930632420264,3.2099216215664463,26.822930632420263,-3.824767699,2.4448,0.19271617,1,0,0,0,0.0025876,1
0,Rb2NaTaCl6,ABC2D6,287.6828365868714,3.391645592061944,28.768283658687142,-4.545429392,0.0,2.82464283,0,1,1,1,1.9994343,1
0,Rb2NaTaF6,ABC2D6,171.56445006925895,4.731616715611679,17.156445006925896,-5.608245476,0.0,3.67697754,0,1,1,1,1.9997864,1
0,RbPdCl3,ABC3,125.490540284061,3.946516301287615,25.0981080568122,-3.77837043,0.0,1.00687889,0,1,0,0,0.0001213,1
0,Sr2YBiO6,ABC2D6,159.6650225747873,5.918956943555096,15.966502257478728,-7.087236301999999,2.0265000000000004,2.41169241,1,0,0,0,0.0,1
0,Sr2YBiO6,ABC2D6,624.5146510120967,6.053023047452016,15.612866275302418,-7.15427342025,1.9723999999999997,2.23423581,1,0,0,0,0.0,1
0,SrEuZrSnO6,ABCDE6,142.84092491799407,6.341655748259208,14.284092491799408,-8.514351584,0.6193,6.310319,1,0,1,1,6.9999998,1
0,SrNdCoSbO6,ABCDE6,128.42222789250792,6.575729176619486,12.842222789250792,-7.145164481,0.0,5.81192947,0,1,1,1,2.9999999,1
1,TbCrO3,ABC3,220.4416567686988,7.801541691124652,11.02208283843494,-9.0416070835,2.4854000000000003,3.59892113,0,0,1,1,12.000001,0
4,BaMnO3,ABC3,138.62812636506428,5.755924357513797,13.862812636506428,-7.6671448255,0.0,2.76417395,0,1,1,1,6.0011318,0
4,BaMnO3,ABC3,418.53444768251074,5.719479103329138,13.951148256083693,-7.659943475,1.7073,1.79028049,0,0,1,1,17.9999981,1
3,BaMnO3,ABC3,196.58101951817105,6.088581271505338,13.1054013012114,-7.652395308666667,0.8952999999999998,2.44818127,0,0,1,1,8.9998148,0
4,BaMnO3,ABC3,531.0888445860152,6.009789264567697,13.27722111465038,-7.65261695575,0.7368999999999999,2.29464452,0,0,1,1,24.0000003,0
3,BaMnO3,ABC3,334.78723854374823,5.958508250284639,13.391489541749928,-7.65262523,0.8679000000000001,2.39012559,0,0,1,1,15.0000004,1
4,BaMnO3,ABC3,257.2383259452137,6.203842341526642,12.861916297260686,-7.647341369999999,0.4982999999999999,2.54489169,1,0,1,1,11.9999985,0
4,BaMnO3,ABC3,276.8088065448443,5.765228492121007,13.840440327242217,-7.667293149,1.8948,2.23595598,1,0,1,1,12.0000015,0
4,BaMnO3,ABC3,394.2143439312978,6.072328580617819,13.14047813104326,-7.648882795,0.0,3.07128919,0,1,1,1,17.9999985,1
0,BaSrZrSnO6,ABCDE6,146.7582489093202,6.006767379867875,14.67582489093202,-7.713876204,3.9199,3.16891728,0,0,0,0,0.0,1
0,Ca2BiWO6,ABC2D6,154.3329898177475,6.121838003323261,15.43329898177475,-7.247934379999999,0.0,5.73218455,0,1,1,1,1.0,1
5,Ca2BiWO6,ABC2D6,280.56409005198844,6.73501417845539,14.028204502599422,-7.609616226,1.8101000000000005,4.44007532,0,0,1,1,1.9958767,1
2,Ca2BiWO6,ABC2D6,289.16739297169033,6.534634161364695,14.458369648584515,-7.419135771,0.0,5.43652954,0,1,1,1,1.9999991,1
6,Ca5Ho3Ti5Mn3O24,A3B3C5D5E24,461.3901966181842,5.338439519742832,11.534754915454604,-8.5890432695,0.5537000000000001,4.14831402,0,0,1,1,12.0007998,1
0,Eu3WO6,AB3C6,156.14049919236234,7.824400183977837,15.614049919236232,-10.175710504,0.1525999999999996,4.46110824,0,0,1,1,20.9999637,1
0,EuAuO3,ABC3,69.40281719206341,9.496959262589131,13.880563438412684,-7.157114180000001,0.0,3.20973602,0,1,1,1,6.5049061,1
0,Gd3AlC,ABC3,120.58236033760726,7.033428751796712,24.11647206752145,-11.381464934,0.0,3.36124582,0,1,1,1,21.311725,0
0,HoBeO3,ABC3,45.22311094458824,8.149399686173764,9.044622188917648,-7.525089224,0.0,4.16904745,0,1,1,1,0.9781722,1
1,HoGaO3,ABC3,225.6080378581869,8.321581015458298,11.280401892909344,-7.631604461499999,3.6066,2.66988939,1,0,0,0,0.0004574,0
4,HoGaO3,ABC3,364.4017489772161,7.728073081612191,12.146724965907204,-7.662299399333333,2.8722,1.77347813,0,0,0,0,0.0,1
0,KCaO3,ABC3,95.36093697143248,2.2145150019717708,19.07218739428649,-5.06711209,0.0,-0.97531893,0,1,1,1,3.0,1
3,KCoCl3,ABC3,234.1901016569457,2.8984863099498632,23.41901016569457,-4.189181978,0.0,1.39452611,0,1,1,1,6.0024189,1
5,KCr5Se8,AB5C8,306.3587656075787,5.044939210133382,21.882768971969902,-6.435547415714285,0.1558000000000001,3.76871329,0,0,1,1,15.0035591,1
5,KCr5Se8,AB5C8,308.5380287672373,5.009305838755182,22.03843062623124,-6.436376625714286,0.0037000000000002,3.71932095,0,0,1,1,15.0037318,0
3,KNa7V7CrO24,ABC7D7E24,435.8568898176807,3.7816293936047294,10.896422245442016,-7.225468901249999,0.0,2.20706237,0,1,1,1,0.9997642,1
0,KRb2TmCl6,ABC2D6,350.3972318019032,2.8040115949747304,35.03972318019032,-4.339131956,4.871499999999999,-1.67963258,1,0,0,0,0.0001434,1
1,MgSiO3,ABC3,897.2779016846998,2.9725347365795702,11.215973771058747,-7.405008980124999,3.1742,3.81120663,1,0,0,0,0.0004439,0
1,MgSiO3,ABC3,851.1953505444209,3.133463698335612,10.63994188180526,-7.592485359875001,4.5556,2.89106747,1,0,0,0,0.0001084,1
3,MgSiO3,ABC3,90.81105492543924,3.671345043443369,9.081105492543925,-7.493899267000001,5.7928,4.80188568,0,0,0,0,0.0001225,0
1,MgSiO3,ABC3,419.7605203075135,3.1770373845175284,10.494013007687837,-7.59833251,4.5579,2.96333104,1,0,0,0,0.0,1
1,MgSiO3,ABC3,407.75547752521015,3.270574986890391,10.193886938130252,-7.161808967000001,1.4453000000000005,6.43689684,1,0,0,0,0.0003598,1
1,MgSiO3,ABC3,428.8623999297255,3.109610135512056,10.721559998243135,-7.602638963249999,4.6626,2.8051967,1,0,0,0,0.0,0
1,MgSiO3,ABC3,895.4855821140897,2.978484282043063,11.19356977642612,-7.5017461325,4.159700000000001,3.32521247,1,0,0,0,0.0007452,0
1,MgSiO3,ABC3,415.78466050652224,3.2074171854653586,10.394616512663056,-7.321491688499999,2.4281999999999995,5.46963494,0,0,0,0,0.0010352,1
5,MgSiO3,ABC3,880.8185370473699,3.0280808349740247,11.010231713092123,-7.598188193,4.535,2.61085936,1,0,0,0,6.27e-05,1
1,MgSiO3,ABC3,540.679245915951,2.466517580681852,13.516981147898775,-7.464681957000001,4.4184,1.18265687,1,0,0,0,0.0016372,1
5,MgSiO3,ABC3,1558.076480618438,3.423695517262833,9.737978003865235,-7.50777940525,4.5226,9.00354409,0,0,0,0,0.0020062,1
1,MgSiO3,ABC3,446.7738891853932,2.9849436098270083,11.169347229634829,-7.599094954250001,4.6372,2.70249897,1,0,0,0,0.0011348,1
5,MgSiO3,ABC3,887.8358053691328,3.004147518035803,11.09794756711416,-7.600457427249999,4.5708,2.95230167,1,0,0,0,6.04e-05,1
1,MgSiO3,ABC3,84.1979956765026,3.959698965653852,8.41979956765026,-7.349852831,4.6413,6.39504537,1,0,0,0,0.0,0
5,MgSiO3,ABC3,441.3797870132442,3.0214226042967463,11.034494675331104,-7.50243952175,3.7886,3.38026088,1,0,0,0,0.0002607,0
5,MgSiO3,ABC3,217.49262407096256,3.065839292845121,10.874631203548129,-7.208485609999999,2.2265000000000006,4.12957238,1,0,0,0,0.0005312,1
1,MgSiO3,ABC3,889.7182633334282,2.9977913695174427,11.121478291667852,-7.59980997875,4.5929,2.49362335,1,0,0,0,0.0001307,1
2,MgSiO3,ABC3,782.1641212147097,3.4100128844836592,9.77705151518387,-7.522253549625001,4.7719,4.3918636,0,0,0,0,0.0004908,1
5,MgSiO3,ABC3,215.1168579397949,3.099698643643109,10.755842896989744,-7.601560761,4.5794,2.82021757,0,0,0,0,0.0,0
1,MgSiO3,ABC3,422.7228741338784,3.1547733684719965,10.56807185334696,-7.560144982500001,4.5951,3.39788907,1,0,0,0,0.0009703,1
5,MgSiO3,ABC3,321.5577847395927,2.0736473020572106,16.077889236979637,-5.944687071500001,0.4428000000000001,1.6348346,0,0,1,1,3.9996038,1
1,MgSiO3,ABC3,882.0648952475137,3.0238021550268885,11.025811190593922,-7.477800413375,4.386,3.005742,1,0,0,0,2.93e-05,0
5,MgSiO3,ABC3,891.1783782826484,2.9928797602370305,11.139729728533103,-7.59981809975,4.5412,2.46518408,1,0,0,0,9.49e-05,1
1,MgSiO3,ABC3,865.7559289834046,3.0807640373365843,10.821949112292558,-7.60310551825,4.7002,3.01376361,1,0,0,0,5.08e-05,0
5,MgSiO3,ABC3,391.2060287080564,3.4089322957666264,9.780150717701408,-7.485255032,5.514399999999999,4.25648353,1,0,0,0,0.0034285,1
1,MgSiO3,ABC3,167.93161695400687,3.970648558474681,8.396580847700344,-7.393931073999999,5.5464,6.10281326,0,0,0,0,0.0,0
1,MgSiO3,ABC3,422.5278109317631,3.156229793775328,10.563195273294076,-7.169120509,1.0261000000000005,6.3514529,1,0,0,0,0.000717,1
5,MgSiO3,ABC3,873.6374877360022,3.0529707900183154,10.920468596700028,-7.5903141325,4.411099999999999,3.27208386,1,0,0,0,1.2e-05,1
0,MgSiO3,ABC3,43.8830602686278,3.79871770962978,8.776612053725561,-7.143716374,4.4298,6.96712789,0,0,0,0,5.4e-06,1
5,MgSiO3,ABC3,414.5371506675578,3.2170696001888355,10.363428766688944,-7.603293569250001,4.664,3.2018488,1,0,0,0,0.0,0
5,MgSiO3,ABC3,201.4815416490465,3.3094715641109214,10.074077082452323,-7.591702607499999,4.5306,3.52659638,0,0,0,0,0.0,0
5,MgSiO3,ABC3,436.5315647670951,3.0549792344867863,10.913289119177378,-7.58934849275,4.4998000000000005,3.05764353,1,0,0,0,0.0013207,1
5,MgSiO3,ABC3,876.3740558702989,3.0434375746944013,10.954675698378736,-7.594132940874999,4.5845,2.95205539,1,0,0,0,2.01e-05,1
5,MgSiO3,ABC3,499.10108595980574,2.6719935160968538,12.477527148995144,-7.316306207249999,3.2732,2.31492988,1,0,0,0,9.54e-05,1
5,MgSiO3,ABC3,194.44017702385625,3.429319202373176,9.722008851192813,-7.419682396499999,5.0922,4.36536439,0,0,0,0,0.000133,0
5,MgSiO3,ABC3,874.8657585325333,3.0486845611569504,10.935821981656666,-7.600779998,4.642100000000001,3.06368273,0,0,0,0,5.3e-06,1
5,MgSiO3,ABC3,516.8651038561686,2.5801603853925634,12.921627596404216,-7.3105009675,3.0501,4.75064071,1,0,0,0,0.0036978,1
0,NaCaPrFeO6,ABCDE6,129.97559226537783,4.545836019438388,12.997559226537785,-6.751043949000001,0.0,2.11574019,0,1,1,3,2.0000008,1
0,NaCaZrBiO6,ABCDE6,145.23070263499528,5.2511857858846565,14.523070263499529,-7.017659866,1.3637,2.34966765,0,0,0,0,0.0,1
0,NaEuDySbO6,ABCDE6,145.09010839027465,6.354314477339221,14.509010839027464,-7.666543269,0.0,2.41931847,0,1,1,1,6.0,1
2,NaSr2LaTi4O12,ABC2D4E12,722.5353209745712,4.968246560656847,12.042255349576186,-8.520379244333334,1.8852,3.92661031,0,0,0,0,1.14e-05,1
2,NaSr2LaTi4O12,ABC2D4E12,242.13710665422144,4.941736898551508,12.106855332711072,-8.520863389,1.8639,3.75476803,0,0,0,0,0.0005999,1
2,NaSr2LaTi4O12,ABC2D4E12,242.34144249459183,4.937570157808939,12.117072124729592,-8.516114113,1.8277,3.81319714,0,0,0,0,0.0001225,1
0,NaSrNbSnO6,ABCDE6,134.19803369124952,5.175000426684846,13.419803369124953,-7.390083356,3.2357,2.95485741,1,0,0,0,0.0,1
0,NaSrYWO6,ABCDE6,145.23410821488304,5.480687453186476,14.523410821488303,-8.112660258,2.8804,1.77381773,1,0,0,0,0.0,1
5,NbMoS3,ABC3,175.55002194293814,5.392449876667375,17.555002194293813,-7.854546694,0.0,6.76311123,0,1,0,0,7.7e-05,1
0,PrEu2SbO6,ABC2D6,613.4320379483946,7.174453997697071,15.335800948709863,-8.840544265,0.0108000000000005,6.12210581,1,0,1,1,56.0019937,1
0,PrEu2SbO6,ABC2D6,158.89536476334754,6.924430966770263,15.889536476334754,-8.769087834,0.3372999999999999,5.46690979,1,0,1,1,13.9999997,1
0,Rb2CuSbBr6,ABC2D6,330.4829695128234,4.198871056682045,33.04829695128234,-3.330797104,0.4020999999999999,1.61970685,0,0,0,0,0.0005109,1
0,Rb2LiAlF6,ABC2D6,139.25307881956596,3.802145640470934,13.925307881956597,-5.333389519,7.248,-1.74583333,1,0,0,0,0.0,1
0,RbMgO3,ABC3,73.81009484134074,3.549445501183828,14.762018968268148,-4.88328735,0.0,0.22039098,0,1,1,1,3.0,1
6,Sr2FeMoO6,ABC2D6,1543.3657027498562,5.461649635906222,12.861380856248802,-7.771415679416667,0.5493000000000006,4.31159474,0,0,1,1,72.0029515,1
2,Sr2FeMoO6,ABC2D6,128.11251785751264,5.483020492104341,12.811251785751264,-7.770334577999999,0.3163,4.38842509,0,0,1,1,6.0001556,0
5,Sr2FeMoO6,ABC2D6,1281.7521908833694,5.4803382877286815,12.817521908833694,-7.7712013885,0.3024999999999993,4.28930368,0,0,1,1,12.0003262,1
0,Sr2FeMoO6,ABC2D6,257.0475416749025,5.465475811445272,12.852377083745123,-7.770677546,0.2264000000000008,4.46920405,1,0,1,2,3e-07,0
5,Sr2FeMoO6,ABC2D6,1288.04074342712,5.453581839645983,12.880407434271198,-7.7689342202,0.4168000000000003,4.26305555,0,0,1,1,60.0021976,1
0,Sr2SmNbO6,ABC2D6,607.5241681404499,5.625138954911782,15.188104203511248,-8.18102908125,3.0633,1.74787471,0,0,0,0,0.0,1
0,Sr2SmNbO6,ABC2D6,156.4232872153606,5.46179524336456,15.64232872153606,-8.115141449,2.8836,1.86959226,1,0,0,0,0.0,1
5,Sr2SmNbO6,ABC2D6,299.2559211917522,5.709841681073156,14.962796059587609,-8.214991039000001,3.1716000000000006,1.69809568,0,0,0,0,0.0010115,0
2,SrLaFeCoO6,ABCDE6,238.24996460164328,6.095730951929894,11.912498230082164,-7.578457423500001,0.0,5.1247072,0,1,1,2,0.0082963,1
3,SrLaFeCoO6,ABCDE6,235.6920818673142,6.161885762187096,11.78460409336571,-7.606954664,0.3611999999999993,5.04580605,0,0,1,1,11.9999319,1
0,SrLaFeCoO6,ABCDE6,237.71040208106243,6.109567233087184,11.885520104053125,-7.594592838000001,0.0,4.51705295,0,1,1,1,11.999991,1