Shape,formula_pretty,formula_anonymous,volume,density,density_atomic,energy_per_atom,band_gap,efermi,is_gap_direct,is_metal,is_magnetic,ordering,total_magnetization,theoretical
0,Y3PbC,ABC3,118.33713615433366,6.8186781336098905,23.66742723086673,-7.038181249999999,0.0,5.026395,0,1,0,0,6.07e-05,0
5,Yb3GeO,ABC3,201.30028334548632,10.02689325639248,20.130028334548637,-4.722644614,0.0,3.13363086,0,1,0,0,0.001156,1
0,YbGeO3,ABC3,49.99877572728484,9.753521301575487,9.999755145456968,-6.966526748,1.0156999999999998,4.32691404,0,0,0,0,0.0,1
2,Ba5Li2U3O15,A2B3C5D15,802.8562639438144,6.844361343234799,16.05712527887629,-8.2495583644,1.2725,2.92084727,0,0,0,0,0.0004813,1
0,Ba6In2NF,ABC2D6,358.05892834534023,5.039245665764091,35.80589283453402,-3.66057496,0.0,3.1668459,0,1,0,0,0.0242792,1
0,BaBeO3,ABC3,59.04946220190078,5.4649915998960585,11.809892440380157,-6.126401228000001,0.0,1.92127383,0,1,1,1,2.0000789,1
0,BaSmEuSbO6,ABCDE6,156.52955901203967,6.974086410656579,15.652955901203969,-8.051431442,0.5838999999999999,5.67903212,0,0,1,1,7.0,1
0,BaSrCeNiO6,ABCDE6,138.43039313913337,6.234684521247322,13.843039313913335,-7.137184219,1.1908,3.48711453,0,0,0,0,0.0,1
5,Ca2ScTaO6,ABC2D6,250.7671564743573,5.324700596130101,12.538357823717863,-8.818255823,3.7338,5.99498176,1,0,0,0,1.18e-05,1
0,CaEuInFeO6,ABCDE6,127.69641089328668,5.964862984603722,12.769641089328667,-7.529691729,0.0,3.80536427,0,1,1,1,10.0000006,1
0,CaEuNbFeO6,ABCDE6,127.90242064667945,5.670780036174784,12.790242064667945,-8.915744286999999,0.0,5.06835118,0,1,1,1,11.7352481,1
0,CaEuZrFeO6,ABCDE6,130.51052126547316,5.536050495094414,13.051052126547315,-8.792760944,0.0,2.91435105,0,1,1,1,11.0000007,1
6,CaLa2Ti2Mn2O12,AB2C2D2E12,455.0690173895175,5.221634917549953,11.975500457618882,-8.637475453421052,0.0,4.50470281,0,1,1,2,0.000145,1
0,Co(IN2)3,AB3C6,1439.1840273257385,2.4169317664852445,35.97960068314346,-4.713376474,0.0,-0.48873683,0,1,1,1,21.6562299,0
0,Co(IN2)3,AB3C6,126.33933005213603,6.883069571499076,12.633933005213605,-4.373237919999999,0.0,7.90908025,0,1,0,0,0.000889,0
0,Cr3RhN,ABC3,55.71683709583436,8.133303417155991,11.143367419166871,-9.23797004,0.0,7.29360824,0,1,1,1,0.7504328,0
0,Cs2InBiI6,ABC2D6,513.1954049514093,4.371528354136666,51.31954049514093,-2.9051655540000003,0.6520999999999999,2.15938891,1,0,0,0,0.0038595,1
0,Cs2KLaF6,ABC2D6,240.1970955732948,3.8562379210464015,24.01970955732948,-5.489556872,6.2199,-1.88519258,0,0,0,0,4.97e-05,1
0,Cs2LiNF6,ABC2D6,156.03465007067368,4.264818156043362,15.603465007067369,-4.120557373,2.467,-1.57612732,0,0,0,0,0.0003684,1
0,Cs2NaPrI6,ABC2D6,498.30579909840753,3.9693024690124297,49.83057990984075,-3.391014859,3.1147,0.39416667,1,0,0,0,0.0015798,1
0,Cs2NdAgF6,ABC2D6,219.27736916485787,4.785326340664483,21.927736916485788,-5.250800703,3.3086,-0.11924824,0,0,0,0,5e-07,1
0,Cs2TaCuI6,ABC2D6,387.75888937397474,5.446064727875476,38.77588893739748,-3.568453793,0.0,3.74981287,0,1,1,1,1.9313597,1
3,Cs8Na4YHo3Cl24,AB3C4D8E24,1295.9489705823376,3.3183534620482247,32.39872426455844,-4.4285065035,5.1424,-0.8034064,1,0,0,0,3.25e-05,1
0,CsEuF3,ABC3,108.52345886680294,5.230939299561771,21.704691773360587,-6.9669941280000005,0.0,3.92051642,0,1,1,1,6.9976264,0
3,CsMnCl3,ABC3,422.3155461660551,3.470400822528253,28.15436974440367,-4.978613888666667,1.4829,1.57825405,0,0,1,1,15.0,0
6,CuAgF3,ABC3,256.9180760270113,5.905115804774511,12.845903801350568,-4.0972582215,0.0,1.16340491,0,1,1,3,1.4584229,0
0,CuAgF3,ABC3,64.40539697285884,5.888990141302523,12.881079394571769,-4.079691454,0.0,1.46227458,0,1,1,1,0.7982092,1
3,CuAgF3,ABC3,120.99792184569246,6.269244000794276,12.099792184569246,-4.101862777,0.0,1.01351247,0,1,1,1,1.9999983,1
0,CuNi3N,ABC3,50.7404251421085,8.300429841600447,10.1480850284217,-6.037401716,0.0,7.36332091,0,1,1,1,1.0067557,1
0,ErBeO3,ABC3,44.862770948253655,8.30104923039167,8.972554189650731,-7.517869266,0.0,4.18755243,0,1,1,1,0.9712191,1
0,K2CuAuCl6,ABC2D6,248.3318242300709,3.687269480454536,24.83318242300709,-3.4395449479999995,0.0,1.27120114,0,1,0,0,0.0043636,1
0,K2NaPdF6,ABC2D6,159.34316396573698,3.351408480121344,15.934316396573696,-4.511160858999999,0.0,-0.13395697,0,1,1,1,0.9999665,1
2,K2NaPdF6,ABC2D6,160.0300650515013,3.337023144946393,16.003006505150132,-4.521487545,0.5740000000000001,-0.44149792,0,0,1,1,1.0002381,1
0,KGdNb2O6,ABC2D6,134.15640489739107,5.9184587044018775,13.415640489739108,-9.466294548,0.0,5.05690765,0,1,1,1,6.2799787,1
0,KLaCeNiO6,ABCDE6,133.21915759319288,5.893437372159638,13.321915759319287,-7.235572635,1.3357,4.59920792,0,0,0,0,0.0,1
0,KNd(SnO3)2,ABC2D6,136.45327778438647,6.2885604670720685,13.645327778438649,-6.715159864,1.1914999999999996,4.34380028,1,0,0,0,0.0,1
0,KPrDyNbO6,ABCDE6,148.6157305980351,5.937628223784799,14.86157305980351,-8.20792042,2.4221,1.95008529,1,0,0,0,0.0,1
0,KPrMgWO6,ABCDE6,127.30576004358277,6.315076304407866,12.730576004358277,-7.782407421,2.9739,2.76817027,1,0,0,0,0.0,1
0,KTbEuSbO6,ABCDE6,150.87432371591962,6.248652200289714,15.087432371591962,-7.666939156,0.0,2.2256676,0,1,1,1,6.0004877,1
5,La2GaFeO6,ABC2D6,494.4240699650462,6.708672262054564,12.360601749126156,-8.07832108725,2.307899999999999,6.01267189,0,0,1,2,1.3e-06,1
5,La2NiRuO6,ABC2D6,253.0605088514348,7.002396878011713,12.65302544257174,-8.094795139,0.0,7.50050852,0,1,1,1,8.001357,0
6,La4Mn3NiO12,AB3C4D12,246.693507337566,6.5368010445610265,12.334675366878296,-8.5354268065,0.0928000000000004,7.0703606,0,0,1,1,13.0026104,1
2,Mn3AsN,ABC3,92.33601327230426,4.563216574329757,18.46720265446085,-6.559609266,0.0,2.94372806,0,1,1,1,12.5486541,1
0,Mn3AsN,ABC3,56.01451996535521,7.52214294494203,11.202903993071043,-8.27627532,0.0,7.65967553,0,1,1,1,4.4699219,1
0,Mn3AsN,ABC3,110.80654883246628,3.8025660993085273,22.161309766493257,-6.616473156,0.0,1.7040372,0,1,1,1,15.0074538,1
1,Na3DyTi2Nb2O12,AB2C2D3E12,477.0414547674664,4.90814689435496,11.926036369186658,-8.3394286845,2.5154999999999994,1.95093732,0,0,0,0,0.0023703,1
6,Na3DyTi2Nb2O12,AB2C2D3E12,236.11503296944505,4.958154305656821,11.805751648472253,-8.3341390835,2.6082,1.87081256,0,0,0,0,0.0034965,1
0,NaCaTbSeO6,ABCDE6,128.76023422728838,5.119206160102146,12.87602342272884,-6.50059768,2.2364,2.74475215,0,0,0,0,0.0,1
0,NdEuHfMnO6,ABCDE6,131.10691299200855,7.92394368434383,13.110691299200855,-9.571321417,0.0,4.97621337,0,1,1,1,11.000005,1
0,NiSbO3,ABC3,54.94858203961168,6.903777905566449,10.989716407922336,-5.907621585999999,0.0,6.5899124,0,1,1,1,0.9890065,1
0,Rb2ErAgCl6,ABC2D6,309.1962720722054,3.537983324942999,30.919627207220536,-4.227773828999999,3.7293,-0.27576039,0,0,0,0,0.000946,1
0,Rb2NaAlF6,ABC2D6,150.79912009979324,3.6877542425197514,15.079912009979324,-5.283686186,6.791,-1.65596866,1,0,0,0,0.0,0
0,Rb2ScInCl6,ABC2D6,337.8632331603104,2.670851767741993,33.78632331603104,-4.382824458,2.6355,0.43478208,1,0,0,0,0.0006317,1
0,Rb2TlInBr6,ABC2D6,403.5446364522652,3.9896299107132354,40.35446364522652,-3.2189600739999995,1.8665,-0.13910196,0,0,0,0,5.43e-05,1
1,RbCaBr3,ABC3,704.5146197337431,3.443646614513652,35.225730986687154,-3.863515468,4.626,3.4677485,0,0,0,0,0.0,1
5,RbCaBr3,ABC3,189.3354570837068,3.203440367813513,37.86709141674136,-3.839356738,4.0722,-0.92548349,0,0,0,0,2.66e-05,1
1,RbCaBr3,ABC3,682.9501196873715,3.552381521262568,34.14750598436858,-3.8627330005,4.2996,-0.77610443,1,0,0,0,0.0,1
0,RbCaBr3,ABC3,188.79224295977733,3.212657664168919,37.75844859195546,-3.839853948000001,4.0839,-0.85222692,0,0,0,0,0.0002462,1
0,RbInF3,ABC3,197.67575458300075,4.3224842463490365,19.76757545830008,-4.627204056,2.4848,1.17813364,0,0,0,0,0.0,1
5,Sr2DyTaO6,ABC2D6,289.5213598334611,7.050997972322496,14.476067991673052,-8.5560487225,3.8496,1.70882522,0,0,0,0,0.0004881,1
5,Sr4LaMn5O15,AB4C5D15,584.0604859105779,5.709312691886902,11.681209718211557,-7.851573651600001,0.2934999999999998,4.04622139,0,0,1,3,0.0021335,1
6,Sr4LaMn5O15,AB4C5D15,584.610916144277,5.703937187885056,11.69221832288554,-7.846006742000001,0.0,3.71145722,0,1,1,1,32.1957358,1
5,Sr4LaMn5O15,AB4C5D15,584.8100708083213,5.701994735538412,11.696201416166424,-7.847876638800001,0.3489,3.83196149,0,0,1,1,31.9984167,1
5,Sr7CaMn3Fe5O24,AB3C5D7E24,475.5213613832766,5.173255580447969,11.888034034581915,-7.36734522375,0.0,2.8378854,0,1,1,1,31.9618419,1
2,SrCaCr2O6,ABC2D6,114.882541368572,4.736458598662102,11.4882541368572,-7.814223247000001,0.0,3.36142749,0,1,1,1,4.0804337,1
0,SrCaEuFeO6,ABCDE6,131.8841120246034,5.433014197624167,13.18841120246034,-7.630431307,0.0,2.41482571,0,1,1,1,9.0010025,1
0,SrCaHfFeO6,ABCDE6,127.73340897459296,5.954399232409444,12.773340897459295,-8.108148696,0.0,2.77168503,0,1,1,1,4.0000008,1
1,SrCaSmNbO6,ABCDE6,590.0034281406984,5.256963473609488,14.75008570351746,-8.17665845425,3.0967,1.90940136,0,0,0,0,0.0,1
0,SrCaSmNbO6,ABCDE6,154.66470970256802,5.013468290543937,15.466470970256802,-8.070841319,2.8641,1.90937616,1,0,0,0,0.0,1
0,SrCaYVO6,ABCDE6,137.03992340848313,4.405105192708838,13.703992340848313,-7.981287909000001,1.6094000000000004,2.5312957,0,0,0,0,0.0,1
0,SrEuHfMnO6,ABCDE6,131.1762578898769,7.2029860231341,13.117625788987686,-9.222793645,0.0,3.99367545,0,1,1,1,10.0000011,1
0,SrSmCrSnO6,ABCDE6,127.9452254150225,6.550029551794096,12.79452254150225,-7.699768171999999,2.1038999999999994,4.64328431,1,0,1,1,2.9999292,1
1,VBiO3,ABC3,238.85016311841895,8.56291406739171,11.94250815592095,-7.641337985000002,0.9777000000000003,6.08404337,0,0,1,1,8.0000001,1
0,VBiO3,ABC3,61.15148173351132,8.361422175665389,12.230296346702264,-7.377992122,0.0,7.22092652,0,1,1,1,1.9179222,1
0,YbReO3,ABC3,60.66079468118716,11.14800041508615,12.132158936237431,-8.214844721999999,0.0,6.33369918,0,1,0,0,0.0037698,1
0,BaSrCaCrO6,ABCDE6,139.91229628885097,4.90186861434649,13.991229628885096,-7.082905545,0.5585,2.44233305,0,0,0,0,0.0,1
2,BaSrCaWO6,ABCDE6,308.6957174340288,5.861847699754538,15.43478587170144,-7.734816827,3.3685,2.12015564,0,0,0,0,0.0,1
0,BaSrCaWO6,ABCDE6,160.92983097817,5.622100235133532,16.092983097817,-7.637255385,3.1419,1.91733775,0,0,0,0,0.0,1
0,BaSrCaWO6,ABCDE6,150.90753474840676,5.99548353957801,15.090753474840676,-7.825433427,3.1999000000000004,2.2178749,0,0,0,0,0.0,1
6,BaSrCaWO6,ABCDE6,299.80408133575605,6.035699291025382,14.990204066787802,-7.852419557999999,3.4024,1.93628733,0,0,0,0,0.0,1
5,BaSrCaWO6,ABCDE6,149.7498794414425,6.041832180146521,14.97498794414425,-7.853069080999999,3.405,2.05999192,1,0,0,0,1.37e-05,1
1,BaSrCaWO6,ABCDE6,600.7318984896764,6.024408844325204,15.01829746224191,-7.84881391,3.2474,2.05993119,1,0,0,0,0.0,1
6,BaSrCaWO6,ABCDE6,310.0166263477023,5.836871726793275,15.500831317385115,-7.774541506,3.3675000000000006,1.87575261,0,0,0,0,0.0,1
1,BaSrCaWO6,ABCDE6,623.3413697758309,5.805895032493959,15.583534244395771,-7.768252882,3.2742999999999998,1.84828842,0,0,0,0,0.0,1
1,BaSrCeNbO6,ABCDE6,631.8336255910696,5.823569889234731,15.795840639776738,-8.2967836495,0.0,5.56980752,0,1,1,1,4.0000449,1
1,BaSrSmNbO6,ABCDE6,621.914417797357,6.02586050193849,15.547860444933926,-8.207185865,2.9738,1.85670072,1,0,0,0,0.0,1
0,BaSrSmNbO6,ABCDE6,159.45498526773596,5.875591659142447,15.945498526773596,-8.170939667,2.8688,1.94441636,1,0,0,0,0.0,1
5,Ca3Ta2Mn2O12,A2B2C3D12,227.89800340251972,5.712469469016269,11.994631758027356,-8.566161430526316,0.4045000000000001,2.81545034,0,0,1,1,6.0009613,1
0,Ca7MgMn8O24,AB7C8D24,435.5646742913826,4.301667134905244,10.889116857284566,-7.543665885749999,0.0,3.40865349,0,1,1,1,24.3631244,1
0,CaVO3,ABC3,56.19975561423256,4.107568071709151,11.239951122846511,-8.017946754,0.0,5.05378626,0,1,1,1,0.9968925,1
5,CaVO3,ABC3,224.8006192053436,4.10753889584289,11.24003096026718,-8.115363726000002,0.2606000000000001,4.2451289,0,0,1,1,3.9981356,1
1,CaVO3,ABC3,214.7429867546256,4.299918247158427,10.737149337731278,-8.123021790500001,0.4338999999999999,4.10152432,0,0,1,1,3.999347,0
0,Cs2NaAsF6,ABC2D6,184.9243112192628,4.289650089333272,18.49243112192628,-4.71704486,4.557799999999999,0.21274693,0,0,0,0,0.0005972,1
0,Cs2NaYBr6,ABC2D6,381.4042787866023,3.731732436976608,38.14042787866023,-4.106818073,4.2176,-0.74346345,1,0,0,0,0.0007139,0
0,Cs2TlInBr6,ABC2D6,410.9472562190818,4.301130798573819,41.09472562190818,-3.253867587,1.8255,0.05294794,0,0,0,0,0.000144,1
1,ErCoO3,ABC3,201.45109439388895,9.040484271457936,10.072554719694448,-7.962130946499999,1.4471000000000005,3.36181437,0,0,0,0,0.0,0
0,Eu2TiSbO6,ABC2D6,134.4486985583684,7.034373409915442,13.444869855836838,-9.091008616,0.0,6.4535585,0,1,1,1,13.8477195,1
0,GdCuO3,ABC3,54.819729366320175,8.142018852244014,10.963945873264034,-8.85020497,0.0,4.52097031,0,1,1,1,6.994289,1
0,K2NaBiCl6,ABC2D6,323.5405889084551,2.683652736273044,32.35405889084551,-3.744600364,3.7886,-0.69117614,0,0,0,0,0.0006888,1
0,K2NaMoI6,ABC2D6,420.238109938982,3.7876503357693543,42.0238109938982,-3.424389743,1.0859,1.63416667,1,0,1,1,2.9981717,1
0,K2NaScCl6,ABC2D6,284.97599782230304,2.091058619217747,28.497599782230303,-4.468546396,3.9133,-0.87358472,1,0,0,0,0.0003154,1
0,KBa2IO6,ABC2D6,167.2340202011926,5.328661912974667,16.72340202011926,-5.753584769,2.7790000000000004,2.44263141,1,0,0,0,0.0003513,1
6,Na5Nd11Ti10Mn6O48,A5B6C10D11E48,958.2492273571085,5.680201105962301,11.978115341963855,-8.619990649875001,0.0,4.51152037,0,1,1,1,24.0001456,1
0,NaLa(SnO3)2,ABC2D6,135.16856090023228,6.084878922201454,13.516856090023229,-6.804939288,0.0,5.42075558,0,1,0,0,0.0003697,1
0,NaMoO3,ABC3,61.57755902520197,4.501484285601487,12.315511805040394,-7.421171805999999,0.0,3.7837783,0,1,1,1,1.0003638,1
3,NaMoO3,ABC3,119.8161344596492,4.626929679341222,11.98161344596492,-7.429267822999999,0.0,4.36459254,0,1,1,1,2.0013502,1
0,NaSrCeFeO6,ABCDE6,136.74536454879888,4.888491202065299,13.674536454879888,-7.148762833000001,0.0,2.52438864,0,1,1,1,3.0000004,1
0,NpSiO3,ABC3,54.13223823303124,9.604031385652949,10.826447646606248,-9.168627902,0.0,13.37195358,0,1,1,1,4.6133301,1
0,Rb2HgSbI6,ABC2D6,467.0016021621456,4.461438635567731,46.70016021621456,-2.547117181,0.0,1.72989551,0,1,0,0,0.0005761,1
0,Rb2NdAuCl6,ABC2D6,329.3042067110702,3.655167243523852,32.93042067110702,-4.125456388,2.2412,0.43834786,0,0,0,0,0.0006424,1
0,Sr2FeOsO6,ABC2D6,252.316199809476,6.8090419080992985,12.6158099904738,-7.609113272499999,0.0,4.3075657,0,1,1,2,0.0,0
3,Sr2FeOsO6,ABC2D6,252.665480474364,6.799629198929664,12.6332740237182,-7.602338882,0.0,4.4687073,0,1,1,3,10.0001281,1
5,Sr2LiTeO6,ABC2D6,266.6927405312765,5.053075113338929,13.334637026563826,-6.207887868,0.0,2.44983077,0,1,0,0,2.0025526,1
2,Sr2LiTeO6,ABC2D6,260.30977333791657,5.1769798452298685,13.015488666895829,-6.208008842,0.0,2.76651913,0,1,0,0,2.0019441,1
6,Sr2NbCoO6,ABC2D6,506.7440456298624,5.545475596100302,12.66860114074656,-7.804046324500002,1.2556000000000005,3.94984835,1,0,1,3,5.948411,1
0,Sr2NbCoO6,ABC2D6,257.1689949923689,5.463599409782907,12.858449749618444,-7.808353799000001,1.5007,2.56030472,1,0,1,2,0.0003928,1
1,Sr2NbCoO6,ABC2D6,514.8732246226228,5.457919744358883,12.871830615565573,-7.805858233749999,1.3491,2.46331363,1,0,1,2,0.2779914,1
5,Sr2NbCoO6,ABC2D6,513.7462577507602,5.469892376078104,12.843656443769005,-7.805977069250001,1.3338,2.50834479,0,0,1,2,0.0399633,1
0,Sr2NdMnO6,ABC2D6,147.680559453796,5.289422571140669,14.7680559453796,-7.412574719000001,0.0,1.88670271,0,1,1,3,1.9999999,1
0,Sr2VWO6,ABC2D6,132.10595222805898,6.360519546449493,13.210595222805898,-8.299964919,0.8022,5.17291471,0,0,1,1,3.0000004,1
5,Sr3Ca5Mn7FeO24,AB3C5D7E24,456.188027761197,4.687076109467207,11.404700694029923,-7.561748927000001,0.0,3.0823317,0,1,1,1,26.9575508,1
1,SrCa7Fe2(CoO4)6,AB2C6D7E24,441.7301286004948,4.576567974345594,11.043253215012369,-6.845644067249999,0.0,3.29113417,0,1,1,1,26.4063128,1
1,SrCa7Mn6Al2O22,AB2C6D7E22,445.6636968513571,4.112541113188318,11.727992022404134,-7.522374631315789,0.0,3.92836117,0,1,1,1,19.9997873,1
6,SrCa7Mn6Al2O22,AB2C6D7E22,1795.255006556084,4.083676735089932,11.810888201026868,-7.614015781907896,0.0388999999999999,3.37038145,0,0,1,1,80.000002,1
1,SrCaDyBiO6,ABCDE6,607.6266712628163,6.50604098600121,15.190666781570409,-6.97548266475,2.0327,2.23650478,0,0,0,0,0.0,1
0,SrCaDyBiO6,ABCDE6,156.91254700571673,6.298482981222877,15.691254700571672,-6.8729953980000005,2.0169,2.43383514,1,0,0,0,0.0,1
5,SrCaDyBiO6,ABCDE6,150.49580261286226,6.567033695937608,15.049580261286229,-7.021511056,1.6487000000000005,2.33054377,0,0,0,0,0.0,1
2,SrHfO3,ABC3,136.00212319147215,7.6703058011099,13.600212319147214,-9.09819543,3.6764,2.4371482,0,0,0,0,0.0,1
1,SrHfO3,ABC3,270.9121553948899,7.701226052099758,13.545607769744496,-9.111064951,4.1704,2.09226381,0,0,0,0,0.0,0
0,SrHfO3,ABC3,71.01997313864919,7.34425703345636,14.203994627729838,-9.078107392,3.7226,2.46646277,0,0,0,0,0.0,0
2,SrHfO3,ABC3,71.00848373784919,7.345445357839503,14.201696747569835,-9.078168534,3.7305,2.39369237,0,0,0,0,2.3e-06,1
1,SrHfO3,ABC3,135.63234605846927,7.691217506693517,13.563234605846926,-9.108384599,4.015599999999999,2.13461354,0,0,0,0,0.0,1
2,SrHfO3,ABC3,135.60049749179666,7.69302394736362,13.560049749179663,-9.105002859,4.0578,2.16854037,0,0,0,0,0.0,0
1,SrHfO3,ABC3,271.36984791729213,7.688237160355052,13.568492395864606,-9.1066154,4.0897,2.16451853,0,0,0,0,0.0,0
0,SrLa(CoO3)2,ABC2D6,111.08401992754612,6.583142297865815,11.108401992754612,-7.252051919,0.0,5.57270865,0,1,1,1,4.5379932,1
5,SrLaMgTaO6,ABCDE6,260.7365982484361,6.722420992123264,13.036829912421805,-8.511517637,4.0756000000000006,7.76007728,1,0,0,0,0.0001298,1
1,TbScO3,ABC3,247.2443722811714,6.766676755732844,12.36221861405857,-9.119895555,4.4378,2.73255312,1,0,0,0,0.0,0
3,TlCoO3,ABC3,116.90235340971311,8.84413697374225,11.690235340971311,-5.967864613000001,0.4640000000000004,4.55040886,0,0,0,0,1.54e-05,1
1,TlCoO3,ABC3,232.6166094308966,8.88930870962134,11.63083047154483,-5.9446741835,0.0,4.51741979,0,1,1,1,7.999998,1
6,TlCoO3,ABC3,228.3428885007607,9.055683169260451,11.417144425038034,-5.933432737,0.1429999999999998,4.68661837,0,0,1,1,3.999893,1
0,Yb3SnC,ABC3,206.9333771541141,5.214653548195074,41.38667543082282,-2.47984781,0.0,0.6740103,0,1,1,1,1.9998619,0
0,BaSrGdCrO6,ABCDE6,143.4879055379654,6.1357113977677775,14.34879055379654,-8.54357284,0.0,2.56245812,0,1,1,1,7.9999999,1
1,BaTiO3,ABC3,402.919427981081,5.76628573211291,13.430647599369369,-8.420601784,2.0811,2.81268958,1,0,0,0,0.0,0
4,BaTiO3,ABC3,400.2367535081449,5.8049355247708965,13.341225116938164,-8.415504036333335,1.7260999999999995,3.00223119,1,0,0,0,0.0,0
1,BaTiO3,ABC3,125.85628830095348,3.0767215794609357,25.171257660190697,-7.444891613999999,0.0,0.59322155,0,1,0,0,0.0139247,0
0,BaTiO3,ABC3,128.738833485449,6.015663613577288,12.8738833485449,-8.409168392,1.6662999999999997,3.0411464,0,0,0,0,0.0,0
3,BaTiO3,ABC3,65.6356490658401,5.89961040436988,13.12712981316802,-8.423906982,2.5087,2.83582077,0,0,0,0,0.0,0
2,BaTiO3,ABC3,85.16422489125648,4.546800709110376,17.032844978251298,-6.616488108,0.0,3.78440511,0,1,0,0,0.0770356,0
2,BaTiO3,ABC3,65.32709969254628,5.927475120567493,13.065419938509256,-8.420699606,1.7279999999999998,3.06901686,0,0,0,0,0.0,0
1,BaTiO3,ABC3,85.45832403722468,4.531153196471881,17.091664807444936,-6.617292430000001,0.0,3.68008395,0,1,0,0,0.2176743,0
1,BaTiO3,ABC3,111.54340845946945,3.471516277603288,22.308681691893888,-7.709675374,0.3157,0.29056259,1,0,0,0,0.0,0
1,BaTiO3,ABC3,65.57310741671338,5.905237274567591,13.114621483342678,-8.423433802,2.293,2.85356728,0,0,0,0,0.0,0
0,BaTiO3,ABC3,100.48917348467371,3.853397781060053,20.097834696934743,-5.346455884,0.0,0.967425,0,1,0,0,0.3616125,1
0,Ca2HfSnO6,ABC2D6,136.28515227536383,5.767467250436188,13.628515227536385,-7.864403740999999,3.5477000000000003,3.53307077,1,0,0,0,0.0,1
0,Ca2LaSbO6,ABC2D6,157.27809701030804,4.611914512651182,15.727809701030804,-7.0750303,2.9168000000000003,3.79311489,1,0,0,0,0.0,1
5,Ca2LaSbO6,ABC2D6,286.62877019585136,5.061272374216808,14.331438509792568,-7.325852145000001,3.486,4.2541303,0,0,0,0,0.0002327,0
5,Ca2LaSbO6,ABC2D6,280.69308597767525,5.168300712484886,14.034654298883762,-7.37629017,3.7082000000000006,4.11827739,0,0,0,0,0.0032419,1
2,Ca2LaSbO6,ABC2D6,298.30795872254345,4.863116232166315,14.915397936127173,-7.211962209499999,2.9805,4.35672321,0,0,0,0,4e-07,1