Shape,formula_pretty,formula_anonymous,volume,density,density_atomic,energy_per_atom,band_gap,efermi,is_gap_direct,is_metal,is_magnetic,ordering,total_magnetization,theoretical
1,BaCaDyBiO6,ABCDE6,623.8360014035376,6.866236766265958,15.59590003508844,-7.016908795000001,1.7625000000000002,2.31432834,1,0,0,0,0.0,1
0,BaCaDyBiO6,ABCDE6,160.1995735746172,6.684483599705403,16.01995735746172,-6.924048676,1.9086,2.42563335,1,0,0,0,0.0,1
0,Ba2TaFeO6,ABC2D6,275.90151133954373,7.311908458103994,13.795075566977186,-8.3924803525,1.8623,2.79451208,1,0,1,2,0.0,1
1,Ba4LaTi4CrO15,ABC4D4E15,1294.6480535475234,6.011213405098401,12.946480535475237,-8.5366507687,1.3340000000000003,4.09751103,0,0,1,2,0.0005127,1
1,BaCaTbBiO6,ABCDE6,626.5412278989894,6.798694348245451,15.663530697474735,-7.01699513,1.7212999999999998,2.36942647,1,0,0,0,0.0,1
6,BaCaTbBiO6,ABCDE6,312.9892298469822,6.804806521844438,15.64946149234911,-7.016759048500001,1.7052999999999998,2.16781341,0,0,0,0,0.0,1
0,BaCaTbBiO6,ABCDE6,161.60728627720002,6.589526999656989,16.16072862772,-6.915087116,1.9458,2.44127225,1,0,0,0,0.0,1
1,BaCaZr2O6,ABC2D6,144.68786698106925,5.231646253277125,14.468786698106925,-8.686255558000001,3.5587,2.12858265,1,0,0,0,0.0,1
0,AcCrO3,ABC3,61.36284504026082,8.848788046728616,12.272569008052164,-8.862593228,2.0031000000000008,6.3647368,0,0,1,1,2.9999997,1
0,Ba2SmFeO6,ABC2D6,149.11714410571452,6.423747807294957,14.911714410571452,-7.31117152,0.0,2.13777935,0,1,1,1,2.9999993,1
0,Ba2SnWO6,ABC2D6,165.89461841595403,6.738467917312745,16.5894618415954,-7.560766781,1.1981000000000002,4.98209554,0,0,0,0,0.0,1
0,Ba2SnWO6,ABC2D6,661.9912005437768,6.754624913035063,16.54978001359442,-7.5707324785,1.5556,4.48856015,1,0,0,0,8e-07,1
3,Ba2TmMgNbO6,ABCD2E6,178.1866520512097,6.120746911321849,16.198786550109972,-7.365559079090909,0.0,5.05582249,0,1,0,0,1.1e-06,1
1,Ba2TmMgNbO6,ABCD2E6,171.0371513401021,6.376599420862242,15.54883194000928,-7.34802840090909,0.0,5.45095795,0,1,1,1,1.6021811,1
3,Ba2TmMgNbO6,ABCD2E6,176.60603645036375,6.175527304174299,16.055094222760342,-7.31650496,0.0,5.27416368,0,1,1,1,1.9839981,1
0,Ba2ZrTiO6,ABC2D6,142.60745998415732,5.935492495675971,14.260745998415732,-8.557808588,2.2161,2.67972767,1,0,0,0,0.0001906,1
4,Ba3NaRu2O9,AB2C3D9,451.345205055043,5.747511954457472,15.044840168501432,-6.933589278333334,0.0,3.11406987,0,1,1,1,10.0005185,0
1,Ba3NaRu2O9,AB2C3D9,1795.5252342955696,5.779059880845741,14.962710285796414,-6.930831922833334,0.0,2.92815358,0,1,1,1,31.9999997,1
5,AgSb3PbS6,ABC3D6,766.2914635253085,3.782414250961574,34.8314301602413,-4.415017842727273,1.5029,1.80405546,0,0,0,0,0.0035657,1
5,AgSb3PbS6,ABC3D6,647.9853930216907,4.472989334701416,29.45388150098594,-4.389457166363637,0.7599,2.96694945,1,0,0,0,0.0025169,1
5,AgSb3PbS6,ABC3D6,4458.168381022093,5.201116699614338,25.330502164898256,-4.526073008011363,1.1056,4.74524363,1,0,0,0,0.0002611,0
5,AgSb3PbS6,ABC3D6,656.2685819407493,4.416532852230934,29.83039008821588,-4.422705951818181,1.2338000000000005,2.90295002,1,0,0,0,0.0801676,1
1,AgSb3PbS6,ABC3D6,531.535151544847,5.45294463330292,24.16068870658396,-4.494681482272728,0.1754999999999995,5.31753764,1,0,0,0,0.0006229,1
0,Ba2CoReO6,ABC2D6,550.1162194885471,7.435115007465413,13.752905487213678,-7.758577483250001,0.1981999999999999,4.422401,0,0,1,3,1.92e-05,0
0,Ba2TbBiO6,ABC2D6,666.1514245289337,7.364099481254937,16.65378561322334,-7.02469433675,1.7238000000000002,2.29204676,1,0,0,0,6e-07,1
0,Ba2TbBiO6,ABC2D6,166.89084907753883,7.348523581319269,16.689084907753884,-7.021167418,1.8106,2.4000365,1,0,0,0,0.0,1
5,Ba2TbBiO6,ABC2D6,166.10410357579744,7.383329571945535,16.610410357579745,-7.031945859,1.7302,2.30736602,0,0,0,0,2.47e-05,0
0,Ba2VBiO6,ABC2D6,609.9376274126939,6.866865668920843,15.248440685317348,-7.18623972675,1.1363,3.93686814,0,0,0,0,0.0,1
0,Ba2PuPaO6,ABC2D6,180.0792092959013,7.798207863741372,18.00792092959013,-9.286396204,0.0,7.09106128,0,1,1,1,5.0002044,1
3,Ba3In2WO9,AB2C3D9,226.61744747841965,7.103655402045668,15.107829831894644,-7.185090900666666,2.6884,3.56428977,0,0,0,0,0.0005886,1
1,Ba3In2WO9,AB2C3D9,453.59000986633737,7.098093961338573,15.11966699554458,-7.193555322666667,2.6734,3.53918996,1,0,0,0,0.0013462,1
6,Ba3SrEr2(MoO6)2,AB2C2D3E12,301.70651380353235,6.703610542580118,15.085325690176616,-7.969748674,0.9889,4.50163175,0,0,1,1,1.9998425,1
0,BaNaEuWO6,ABCDE6,154.7257997382868,6.354684824749008,15.47257997382868,-8.296427291,0.0,1.78655048,0,1,1,1,6.0,1
0,Ba3AsP,ABC3,223.74848125104208,3.8433956108279888,44.749696250208416,-3.851431508,0.0,1.7516686,0,1,0,0,0.0033984,1
0,Ba3AsP,ABC3,234.54083393706424,3.666542479338332,46.90816678741285,-3.668456264000001,0.0,1.5756047,0,1,0,0,0.0012773,1
1,BaNaNdWO6,ABCDE6,616.0301776323088,6.301061500925179,15.40075444080772,-7.921155947,2.9197000000000006,1.59662567,1,0,0,0,0.0,1
0,BaNaNdWO6,ABCDE6,157.7583757172145,6.151248734084611,15.77583757172145,-7.90671148,2.8256999999999994,1.61237579,0,0,0,0,0.0,1
0,BaPdO3,ABC3,70.35635538244601,6.885721971520744,14.071271076489202,-6.073839014,0.0,2.28059005,0,1,0,0,0.2599993,1
1,BaSmEuSbO6,ABCDE6,617.6870859359004,7.069279544466418,15.44217714839751,-8.07719203,0.0652999999999996,6.19648971,0,0,1,3,0.0,1
0,Ba2TmMoO6,ABC2D6,150.7257784610517,7.001545810316893,15.07257784610517,-7.953945401999999,0.0,4.20774199,0,1,1,1,0.9999989,1
0,Ba2UGeO6,ABC2D6,165.40856245725965,6.839774883941031,16.540856245725966,-7.997752174,0.6334000000000009,4.69022155,0,0,0,0,0.0010956,1
2,Ba2HoTaO6,ABC2D6,154.28766470373407,7.711723000804539,15.428766470373407,-8.589372012,3.4479999999999995,2.10947192,1,0,0,0,0.0,0
0,Ba2HoTaO6,ABC2D6,154.57781216113375,7.697247852078008,15.457781216113377,-8.588606455999999,3.3782,2.13357086,1,0,0,0,0.0,0
0,Ba2TbCeO6,ABC2D6,175.7137719577827,6.328754434353064,17.571377195778272,-7.743432715,0.0,2.07744879,0,1,1,1,1.0,1
0,Ba2TbCeO6,ABC2D6,697.3652317780978,6.378576176614295,17.434130794452447,-7.7685603015,0.0,2.02541369,0,1,1,1,4.0000046,1
5,Ba3Bi2PbO9,AB2C3D9,507.4311704490429,7.730400690393707,16.91437234830143,-6.313482924333334,0.0,4.11255065,0,1,0,0,0.0016616,1
0,BaCaInBiO6,ABCDE6,153.33495496489496,6.467368113765995,15.333495496489496,-6.207853383,0.0,3.3649048,0,1,0,0,1.1e-06,1
6,BaCaInBiO6,ABCDE6,299.9060852490518,6.613227588511174,14.995304262452589,-6.313431464,0.8218999999999999,3.12858667,0,0,0,0,0.0,1
0,Ba2SmUO6,ABC2D6,177.06167677682004,7.118504976821244,17.706167677682004,-8.548967045000001,0.8488999999999995,5.08069033,0,0,1,1,0.9999223,1
2,BaPr(CoO3)2,ABC2D6,120.8065075585504,6.764097731223698,12.08065075585504,-7.252781745999999,0.0,3.68095907,0,1,1,1,6.2730239,0
2,BaPr(CoO3)2,ABC2D6,120.24092180403446,6.795914497608514,12.024092180403446,-7.258119794999999,0.0,3.49219376,0,1,1,1,5.0005847,1
0,BaSrCaMnO6,ABCDE6,144.51906216676326,4.779417318296203,14.451906216676326,-6.917737484,0.0,1.71457729,0,1,1,3,1.0000004,1
1,BaZrS3,ABC3,506.0566946992324,4.262395303692848,25.30283473496162,-6.683471457,0.9900000000000002,2.88159427,1,0,0,0,0.0,0
1,CaHfS3,ABC3,441.8930364734302,4.7312468410136885,22.09465182367151,-6.944673754,1.5238,3.54553747,1,0,0,0,0.0024856,0
0,Ba2CeWO6,ABC2D6,160.63389862613013,7.180433725230898,16.063389862613015,-8.276184904,0.0,5.20396702,0,1,1,1,2.0,1
0,Ba2CeWO6,ABC2D6,639.1743581730718,7.21819358590771,15.979358954326797,-8.2951389505,0.0,5.68818953,0,1,1,1,7.9999998,1
2,Ba2CoWO6,ABC2D6,139.77699294262504,7.287421359034614,13.977699294262504,-7.927125534000001,1.8427,2.87892904,0,0,1,1,3.0001636,1
0,Ba2CoWO6,ABC2D6,279.25444460810326,7.295238185384703,13.962722230405165,-7.9378769095,0.0,3.53353647,0,1,1,1,6.000052,0
0,Ba2YMoO6,ABC2D6,154.21132944231886,5.981552897641174,15.421132944231886,-8.109713983999999,0.0,4.28851192,0,1,1,1,1.0006089,1
4,Ba3LuIrRuO9,ABCD3E9,441.14629507891897,7.710699525035479,14.704876502630633,-7.477701595,0.0,3.77169189,0,1,1,1,4.0000923,1
2,Ba2CeZrO6,ABC2D6,166.50207525359932,6.0037004067104025,16.65020752535993,-8.381394318,2.5683,2.95570069,0,0,0,0,0.0001582,1
0,Ba2CeZrO6,ABC2D6,166.7493397265994,5.994797811836266,16.67493397265994,-8.391131402000001,2.2933,2.55179983,0,0,0,0,0.0,1
0,Ba2CeZrO6,ABC2D6,661.8145955788561,6.041743917985581,16.545364889471404,-8.39657936,2.2585,2.47778267,0,0,0,0,3.7e-06,1
2,Ba2CeZrO6,ABC2D6,166.49955537419177,6.003791269421657,16.649955537419178,-8.383761071,2.3379,4.78646195,1,0,0,0,0.0004494,1
4,Ba2NbFeO6,ABC2D6,570.7191707498412,6.044913093200619,14.267979268746029,-8.082959452,1.0475000000000003,2.92570272,1,0,1,1,20.0003999,1
0,Ba2NbFeO6,ABC2D6,277.2672110319684,6.221341093607607,13.86336055159842,-8.1052579365,1.5316,2.69969661,1,0,1,2,0.0,1
3,Ba2NbFeO6,ABC2D6,430.5284163822896,6.009965294734898,14.350947212742986,-8.087115900666667,1.6905999999999994,2.51316699,0,0,1,1,15.0030445,1
0,Ba2NbFeO6,ABC2D6,218.3113200181024,3.950720223211793,21.83113200181024,-5.159803392,0.0,0.02599773,0,1,1,1,5.3367633,1
0,Ba2CaMoO6,ABC2D6,153.56571582872633,5.478714226488384,15.356571582872633,-7.539842310999999,2.258,2.36964069,0,0,0,0,0.0,0
5,Ba2HoMgRuO6,ABCD2E6,171.38791672276272,6.40385165617082,15.580719702069338,-6.917050301818182,0.0,4.43195679,0,1,1,1,1.0,1
3,Ba2HoMgRuO6,ABCD2E6,171.38059947192357,6.404125074451824,15.580054497447598,-6.980429646363636,0.0,4.07347106,0,1,1,1,0.9999525,1
1,Ba2HoMgRuO6,ABCD2E6,166.56188178664172,6.589399582784695,15.141989253331063,-6.976948743636364,0.0,4.65127689,0,1,1,1,0.9998089,1
3,Ba2HoMgRuO6,ABCD2E6,171.58636888042332,6.396445134389413,15.59876080731121,-6.91710497,0.0,4.38221269,0,1,1,1,0.9999713,1
3,Ba3Lu2MoO9,AB2C3D9,230.094825226307,7.230107839328239,15.339655015087134,-7.938121984,1.8983,2.28486036,0,0,0,0,0.0038019,1
0,BaCaDyVO6,ABCDE6,140.0780897889238,5.771221294957723,14.00780897889238,-7.831878581000001,1.6048,2.53735399,0,0,0,0,0.0,1
3,AlFeO3,ABC3,193.12520973604157,4.499455863270265,9.656260486802076,-7.946164339000001,2.1792,4.08014455,0,0,1,2,0.0,1
1,AlFeO3,ABC3,179.40360141259467,4.8435948356114125,8.970180070629734,-7.6984840205,1.3295000000000003,7.98869625,1,0,1,1,19.9992519,1
5,AlFeO3,ABC3,197.9087281123728,4.390702550514783,9.895436405618636,-7.768090902999999,1.3607999999999991,6.42573321,0,0,1,1,20.0000811,1
1,AlFeO3,ABC3,182.98391243946455,4.748823793892831,9.149195621973227,-7.898401108,2.1089,5.0549902,0,0,1,2,0.0,1
0,AlFeO3,ABC3,54.91632829150119,3.955828732210649,10.983265658300237,-6.574422203999999,0.0,4.41039782,0,1,1,1,4.4499198,1
4,AlFeO3,ABC3,105.2782827603756,4.126959209953927,10.52782827603756,-7.713172641,0.0,3.61883183,0,1,1,1,10.0001069,1
1,AlFeO3,ABC3,410.0410451498143,4.238396948650082,10.251026128745355,-7.9347613565,1.6518000000000006,4.11816289,0,0,1,1,40.0036148,0
6,AlFeO3,ABC3,197.55869509092065,4.398481964523095,9.877934754546033,-7.7426695995,1.3457999999999997,5.07919962,0,0,1,1,18.0000001,1
6,Ba11(Bi3O10)3,A9B11C30,877.5003557985845,7.326054305683261,17.550007115971688,-6.3542988298,0.0,3.11498422,0,1,0,0,0.001314,1
0,Ba2AgIO6,ABC2D6,157.35779143893134,6.3888076361701,15.735779143893136,-5.665915748,0.1266000000000002,3.38767372,0,0,0,0,0.0002517,1
3,Ba2La(FeO3)3,AB2C3D9,189.6648032728891,6.3482454663309085,12.644320218192606,-7.623272009999999,0.0,3.96364475,0,1,1,1,13.0003235,1
5,Ba2Sr2CaTi5O15,AB2C2D5E15,313.393274393005,5.135902164124976,12.5357309757202,-8.4232465352,1.7732,3.14109848,0,0,0,0,0.00219,1
0,BaBiO3,ABC3,86.82725775700082,7.540948198681999,17.365451551400163,-6.342794462,0.0,4.30063949,0,1,0,0,0.0005044,0
0,AcMnO3,ABC3,62.24139882978788,8.802373253340264,12.448279765957576,-8.599044686,0.0,6.56012414,0,1,1,1,3.9999934,1
6,Ba13Bi11O36,A11B13C36,1044.1969943256713,7.410608350574982,17.403283238761187,-6.356390580500001,0.0,3.27409469,0,1,0,0,0.7267501,1
2,Ba2GdTaO6,ABC2D6,158.11577510551845,7.44435689890334,15.811577510551846,-9.49075363,3.3075999999999994,2.10493084,1,0,1,1,7.0000013,1
0,Ba2GdTaO6,ABC2D6,158.8618388803419,7.4093959224456,15.886183888034193,-9.486781455,3.2148000000000003,2.15051292,0,0,1,1,7.0000009,1
0,Ba2EuCrO6,ABC2D6,147.5903213165784,6.46494414279306,14.75903213165784,-8.020532299,0.0,2.71695809,0,1,1,1,7.0,1
0,Ba2EuCrO6,ABC2D6,597.7596118818242,6.384929087629262,14.943990297045604,-8.027388848749998,0.0,2.37857725,0,1,1,1,28.0000013,1
0,Ba2TbIrO6,ABC2D6,151.5834849087099,7.906963348187136,15.158348490870988,-7.470640497,0.0,3.59907499,0,1,1,1,2.0000097,0
0,Ba2VBiO6,ABC2D6,152.9947230932865,6.8439611334004375,15.29947230932865,-7.198128449,1.1225,3.89477265,0,0,0,0,0.0,1
0,Ba3BiAs,ABC3,243.874471775472,4.738261035975427,48.7748943550944,-3.687723918,0.0,1.99874879,0,1,0,0,0.0028973,1
0,Ba3BiAs,ABC3,284.5583143639169,4.060822857577817,56.91166287278338,-3.17240839,0.0,1.39653434,0,1,0,0,0.0002466,1
2,Ag3RuO4,AB3C4,448.8520411692282,7.231418859075018,14.026626286538384,-5.409151174374999,0.0,2.41819673,0,1,1,1,11.6720432,0
5,Ag3RuO4,AB3C4,884.4141970271933,7.340083699144131,13.818971828549897,-5.395984201875,0.0,2.55574137,0,1,1,1,19.8917836,0
0,Ba2CrMoO6,ABC2D6,270.2477271734844,6.372916817232361,13.51238635867422,-8.062648444999999,0.0,4.55503504,0,1,1,2,3e-07,1
1,Ba3La2Ti3Cr2O15,A2B2C3D3E15,636.2776218847339,6.145364882585441,12.725552437694676,-8.6598130732,1.5316,4.86665032,0,0,1,2,0.002702,1
4,Ba3MgSb2O9,AB2C3D9,446.9882727060557,6.120756014948521,14.899609090201857,-6.709334508333334,2.6352999999999995,3.3458934,1,0,0,0,0.0019165,0
6,Ba3Sr5Co3Cu5O24,A3B3C5D5E24,489.44857315920456,5.864561984604162,12.236214328980116,-6.1596233495,0.0,2.63314364,0,1,1,1,14.3725445,1
1,Ba3SrCo(CuO4)3,ABC3D3E12,253.1622955125904,6.173278051336714,12.65811477562952,-6.043341626,0.0,2.38181339,0,1,1,1,5.657635,1
6,BaBiO3,ABC3,194.21786912608695,6.742529468841823,19.4217869126087,-5.417050556,0.1010999999999997,3.90492859,0,0,0,0,0.0008315,1
0,Ba2CdReO6,ABC2D6,151.21949925033945,7.349226321673464,15.121949925033944,-7.155683863,0.0,4.26303365,0,1,1,1,1.0000722,0
5,Ba4Mg(RhO3)4,AB4C4D12,307.1767348036193,6.363869820536089,14.627463562077113,-6.690829516190477,0.0,3.47927132,0,1,1,1,1.9663903,1
3,Ba4Mg(RhO3)4,AB4C4D12,312.850873702632,6.248449074320504,14.897660652506282,-6.55847623047619,0.0,3.37512704,0,1,1,1,1.8516372,1
4,Ba4Mg(RhO3)4,AB4C4D12,301.5503730393024,6.4826076402591255,14.359541573300111,-6.60988125952381,0.0,4.01311541,0,1,1,1,1.9198504,1
5,Ba4Mg(RhO3)4,AB4C4D12,319.77214050029926,6.113205325295502,15.227244785728535,-6.649050459523809,0.0,3.25685796,0,1,1,1,1.9909511,1
0,BaMnO3,ABC3,65.61237804092859,6.080659114987635,13.122475608185718,-7.54118007,0.0,2.36558456,0,1,1,3,3.0024338,1
3,Ba2CoRuO6,ABC2D6,414.1780797770336,6.382551866121929,13.805935992567786,-7.093158549666667,0.0,3.34113458,0,1,1,1,15.6349386,1
0,Ba2PuTaO6,ABC2D6,160.6516281761604,8.223520920753485,16.06516281761604,-9.349624535,0.0,6.43526298,0,1,1,1,5.00043,1
0,Ba2UCdO6,ABC2D6,167.78130963889217,7.136662795628484,16.778130963889218,-7.684070312,1.8464,2.93023729,1,0,0,0,2e-07,0
0,Ba2CaOsO6,ABC2D6,150.88930401897397,6.613556256286688,15.088930401897397,-7.35728128,0.0,3.84737387,0,1,1,1,2.0004098,0
3,Ba2HoMgNbO6,ABCD2E6,180.35750802737624,6.010211586275171,16.39613709339784,-7.377045824545454,0.0,4.96693678,0,1,0,0,2e-06,1
3,Ba2HoMgNbO6,ABCD2E6,178.0790744568578,6.087109267183804,16.189006768805253,-7.316591981818181,0.0,5.23472791,0,1,1,1,1.9623683,1
1,Ba2HoMgNbO6,ABCD2E6,173.69544269008983,6.240732443118385,15.790494790008166,-7.3400423627272735,0.0,5.41358415,0,1,1,1,1.6096506,1
3,Ba2La2MgTi3O12,AB2C2D3E12,255.48000368273637,5.930075197198926,12.774000184136815,-8.4718607165,2.3412,6.9269365,1,0,0,0,0.0009256,1
6,Ba2La2MgTi3O12,AB2C2D3E12,767.3053957340363,5.923387121903232,12.78842326223394,-8.485028215000002,1.9234,4.56846243,0,0,0,0,0.0005907,1
3,Ba14Ir8(PdO11)3,A3B8C14D33,2778.6436013817797,7.722683859534805,15.969216099895284,-6.86096305770115,0.0,3.91474346,0,1,1,3,7.0895952,0
5,Ba14Ir8(PdO11)3,A3B8C14D33,2798.803609972254,7.667056743578896,16.085078218231345,-6.881706854022989,0.0,3.76776087,0,1,1,1,11.3163417,1
0,Ba2CePtO6,ABC2D6,154.26394370884378,7.597965773437191,15.426394370884378,-7.353921987,1.4204,3.83939604,0,0,0,0,0.0001365,0
0,BaCaYSbO6,ABCDE6,149.71541636888054,5.368936606408872,14.971541636888054,-7.41372092,3.375,3.16131757,1,0,0,0,0.0,1
0,BaNaPrFeO6,ABCDE6,148.32746628458804,5.072111804378247,14.832746628458803,-6.777695898,0.0,1.53650634,0,1,1,1,3.9999994,1
0,AlFe3B,ABC3,55.84468045961814,6.105405143121323,11.168936091923628,-7.313583432,0.0,6.26874156,0,1,1,1,4.050403,1
0,Ba2ErUO6,ABC2D6,168.2717217241136,7.657114717938615,16.82717217241136,-8.615758887,0.8790000000000004,5.26082578,0,0,1,1,0.9999696,1
5,Ba3La7Mn2(Co4O15)2,A2B3C7D8E30,596.9591424616564,6.802954098462993,11.939182849233127,-7.7418270548,0.0,5.90924715,0,1,1,1,28.7491524,1
3,Ba3TiFe2O9,AB2C3D9,407.3296001476277,5.833947914883892,13.577653338254256,-7.615142742000001,0.0,2.5415254,0,1,1,1,16.0550532,1
2,Ba16Tb8Nb5(SnO16)3,A3B5C8D16E48,1277.513254022079,6.573545042897068,15.968915675275989,-7.83886995925,0.0,2.08807796,0,1,0,0,0.5606008,1
0,Ba2InBiO6,ABC2D6,159.11930529721516,7.2471367317719935,15.911930529721516,-6.300334384,0.0,3.22918538,0,1,0,0,4.89e-05,1
0,Ba2InBiO6,ABC2D6,639.9805500547719,7.207465052210091,15.999513751369298,-6.3029089055,0.2080000000000001,3.13946406,1,0,0,0,0.0,1
1,Ba4ScTi4BiO15,ABC4D4E15,330.4579555583422,6.204338708602928,13.218318222333687,-8.238704348,1.8951,5.21786472,0,0,0,0,0.0001209,1
0,BaCaPrFeO6,ABCDE6,146.5922957215169,5.32571758633436,14.659229572151691,-7.193327981,0.2191999999999998,2.39512802,0,0,1,1,2.9999996,1
1,AlGaO3,ABC3,182.42240177281883,5.268750946247227,9.12112008864094,-7.063751335000001,2.6071,4.99899423,1,0,0,0,5.96e-05,1
1,AlGaO3,ABC3,394.62822780999744,4.871107205336525,9.865705695249936,-7.14254157675,3.1117000000000004,4.06346523,0,0,0,0,0.0012291,1
1,AlGaO3,ABC3,399.1495589770759,4.815930171239055,9.978738974426896,-7.143614212,3.2132,3.78105754,1,0,0,0,4.55e-05,1
4,Ba3LiIrRuO9,ABCD3E9,426.1366547691855,6.672786820151144,14.20455515897285,-6.928145175333333,0.0,3.14171133,0,1,1,1,6.6748338,1
3,Ba3MgNb2O9,AB2C3D9,214.1322118289584,5.940852812742581,14.275480788597228,-8.074157840000002,2.6589,2.33586958,0,0,0,0,0.0012429,0
1,Ba3Na2Ti3Nb2O15,A2B2C3D3E15,326.0808561492779,5.231770531009231,13.043234245971115,-8.259526470800001,1.5631,2.50309049,0,0,0,0,0.0002619,1
0,Ba4Cu3MoO12,AB3C4D12,267.45775411629955,6.381691601237852,13.372887705814978,-6.5008033525,0.0,2.75232342,0,1,0,0,0.6968961,1
3,Ba3CaIr2O9,AB2C3D9,211.88066617255583,7.684221470169044,14.125377744837058,-7.024707694666668,0.0,3.89196422,0,1,1,1,3.9938768,0
5,Ba3CaIr2O9,AB2C3D9,439.5359652486518,7.408440231714886,14.651198841621726,-7.044502488333334,0.0,3.51789151,0,1,1,2,0.003909,0
3,Ba3Nb2NiO9,AB2C3D9,849.6242205368007,6.257972418634224,14.160403675613344,-8.097179164166667,2.6808,2.4055464,0,0,1,2,0.0002303,1
1,BaCaLaSbO6,ABCDE6,628.8020608091645,5.641450351931533,15.720051520229111,-7.26285532675,3.5874000000000006,3.73068969,0,0,0,0,0.0,1
6,BaCaLaSbO6,ABCDE6,313.3263184923796,5.660800574167868,15.66631592461898,-7.269424567,3.5067000000000004,3.63919696,0,0,0,0,0.0,1
0,BaCaLaSbO6,ABCDE6,162.69757707517522,5.45084270924339,16.26975770751752,-7.174639695000001,3.2198,3.72771313,1,0,0,0,0.0,1
1,BaLa2TiCr2O9,ABC2D2E9,373.2575164642215,6.326085923111364,12.441917215474048,-8.825506998666667,0.0,7.22104876,0,1,1,2,0.0002356,1
5,Ba2LaTaO6,ABC2D6,162.0157176249183,7.077143312498277,16.20157176249183,-8.539526634000001,3.6213,2.84658487,0,0,0,0,1.2e-06,0
3,Ba2LaTaO6,ABC2D6,165.91729789829657,6.910722794025033,16.591729789829657,-8.539117808,3.6555,6.40395511,0,0,0,0,1.36e-05,0
5,Ba2LaTaO6,ABC2D6,322.56108667679604,7.109403457942175,16.128054333839803,-8.5395221295,3.6315,2.8374494,0,0,0,0,9e-07,0
5,Ba4La6Mn5In5O30,A4B5C5D6E30,678.8355036958092,6.632765538799784,13.576710073916184,-7.6024962408,0.0,5.08702284,0,1,1,1,15.9990181,1
1,Ba9La3Mg5Nb7O36,A3B5C7D9E36,835.2528440314834,5.965211503514883,13.920880733858056,-8.105232868,2.3787,3.20365708,1,0,0,0,0.0002513,1