Shape,formula_pretty,formula_anonymous,volume,density,density_atomic,energy_per_atom,band_gap,efermi,is_gap_direct,is_metal,is_magnetic,ordering,total_magnetization,theoretical
1,KSrCeNbO6,ABCDE6,610.4404850338157,4.958840339013804,15.261012125845392,-8.07196800875,2.0721,2.13839723,0,0,0,0,0.0,1
0,KSrCeNbO6,ABCDE6,153.87075161942283,4.918213614176456,15.387075161942285,-8.054488075,2.0628,2.16506168,1,0,0,0,0.0,1
5,La2TiMnO6,ABC2D6,521.5773380164424,6.069538894674526,13.03943345041106,-9.127486835750002,2.2132,6.24127744,0,0,1,2,0.0,1
2,LaSm(CoO3)2,ABC2D6,434.12050936485343,7.697992729832742,10.853012734121336,-7.850297340999999,0.7027000000000001,6.30973576,1,0,0,0,0.0006229,1
0,LuUO3,ABC3,73.67166685696586,10.390680186641085,14.734333371393172,-9.180594136,0.0,6.67753387,0,1,1,1,3.0,1
1,MnTlO3,ABC3,240.1313074111218,8.500617697942056,12.00656537055609,-6.7789154620000005,0.0,5.38905567,0,1,1,1,15.9761536,1
4,MnTlO3,ABC3,391.17953872103993,7.8273436090862,13.039317957367995,-6.801877481999999,0.0,4.60937419,0,1,1,1,24.0150336,1
6,MnTlO3,ABC3,245.09240312916103,8.328550438722585,12.254620156458053,-6.7686012805,0.0,4.86662574,0,1,1,1,15.9964423,1
3,MnTlO3,ABC3,135.57096356514623,7.528398367649181,13.557096356514624,-6.710766313000001,0.0,3.78558947,0,1,1,1,5.7796585,1
5,MnTlO3,ABC3,242.41609277219445,8.420498896198211,12.120804638609725,-6.7706991720000005,0.0,5.18513959,0,1,1,1,15.9476982,1
3,MnZnO3,ABC3,97.48952847675996,5.734848867701465,9.748952847675998,-6.866778206000001,1.3225000000000002,2.34548018,1,0,1,1,6.0,1
1,MnZnO3,ABC3,195.097888591396,5.731355844333344,9.7548944295698,-6.774189988000001,0.1149,2.80764292,0,0,1,1,11.9976204,1
0,MnZnO3,ABC3,52.26198479368501,5.348894748303294,10.452396958737,-6.31139953,0.0,2.70795321,0,1,1,1,3.1400626,1
0,Na2TlCuF6,ABC2D6,161.61248527893966,4.396587509023455,16.161248527893967,-4.281378649,0.0,1.42045539,0,1,1,1,0.2096601,1
1,NaCoF3,ABC3,112.06779320672788,4.116776964867067,11.206779320672789,-5.421881900000001,2.2744,0.34216949,0,0,1,1,6.0000002,0
1,NaCoF3,ABC3,230.6016740543089,4.001342240631689,11.530083702715444,-5.440153471,2.9522,0.40272957,0,0,1,1,11.9999999,0
0,NaEuHfSnO6,ABCDE6,137.18693705047806,6.877007185004101,13.718693705047809,-8.341273726,0.0,2.7664685,0,1,1,1,6.0004835,1
1,NaNbO3,ABC3,241.4973383034404,4.507759326646763,12.07486691517202,-8.086211604999999,2.3684000000000003,1.3652131,1,0,0,0,0.0,0
1,NaNbO3,ABC3,246.90213602096875,4.409082467416359,12.345106801048436,-8.07698637,1.865,1.42627519,0,0,0,0,0.0002109,0
1,NaNbO3,ABC3,1002.3876037534604,4.344075585218226,12.529845046918254,-8.069500855125,1.6316000000000002,3.16191135,1,0,0,0,0.0006578,1
1,NaNbO3,ABC3,252.06532184664687,4.318768925143931,12.603266092332344,-8.072661721500001,1.6606999999999998,3.14802411,0,0,0,0,0.0012165,0
1,NaNbO3,ABC3,240.3429142597092,4.529411164255803,12.01714571298546,-8.082899089,2.3501,3.6648335,1,0,0,0,0.0,0
1,NaNbO3,ABC3,1520.8843988781505,4.29465334735774,12.674036657317918,-8.077170566000001,1.7196,1.70535078,1,0,0,0,2.98e-05,0
1,NaNbO3,ABC3,126.03267710912635,4.318768370504101,12.603267710912636,-8.072796319,1.6644,1.49093209,1,0,0,0,0.0006232,1
1,NaNbO3,ABC3,260.55339819617905,4.178075920844645,13.027669909808951,-8.0630368065,1.7302,1.38900216,1,0,0,0,0.0008592,1
2,NaNbO3,ABC3,124.81392265583447,4.3609392924035895,12.481392265583448,-8.071345507,1.5604000000000002,1.64400349,0,0,0,0,1.92e-05,0
3,NaNbO3,ABC3,129.43938864437823,4.205102830362381,12.943938864437822,-8.099062602,3.8374,0.24303144,0,0,0,0,0.0,0
1,NaNbO3,ABC3,519.1161887785881,4.194097208407475,12.977904719464703,-8.05972384525,1.7575,1.44903401,1,0,0,0,0.0016615,1
1,NaNbO3,ABC3,481.9706707968925,4.517336614270683,12.049266769922314,-8.084622605,2.3565000000000005,1.28758027,1,0,0,0,0.0,0
1,NaNbO3,ABC3,1499.283297862638,4.356529072189154,12.494027482188647,-8.073842631500002,1.7321,1.38642455,1,0,0,0,2e-05,1
1,NaNbO3,ABC3,755.5617916483899,4.322393844410946,12.592696527473164,-8.076850097333333,1.6547999999999998,3.13688731,1,0,0,0,9.2e-05,0
1,NaNbO3,ABC3,1497.3537389130663,4.362143096078,12.477947824275551,-8.0776337635,1.8049,1.38718633,1,0,0,0,7e-07,1
1,NaNbO3,ABC3,247.43532826035175,4.399581445185803,12.371766413017587,-8.075503793,1.8238,1.55723738,0,0,0,0,0.0003101,0
0,NaNbO3,ABC3,64.44912652017267,4.222756528581366,12.889825304034536,-8.057865508,1.5249,1.44863437,0,0,0,0,0.0005892,0
1,NaNbO3,ABC3,240.47507264074596,4.526921926431923,12.023753632037296,-8.0824539605,2.2326,1.36584407,1,0,0,0,0.0,0
3,NaNbO3,ABC3,121.69003756668432,4.472888253079711,12.169003756668433,-8.088202963,2.5296,1.39056418,1,0,0,0,0.0,0
1,NaNbO3,ABC3,482.5297952992486,4.5121022150459416,12.063244882481214,-8.08460012275,2.4364,2.20485287,1,0,0,0,0.0,0
0,NaSrTbFeO6,ABCDE6,134.70843768424473,5.194271302087896,13.470843768424473,-6.827246925,0.0,1.61784725,0,1,1,3,3.9999997,1
5,Nd4Co3O10,A3B4C10,840.8956649839956,7.217717358453572,12.366112720352875,-8.019860155441178,0.0,4.27700603,0,1,1,1,31.9940025,0
1,NdCrO3,ABC3,231.4476988922669,7.009167420076486,11.572384944613349,-8.994858331500001,2.2364,3.8674358,1,0,1,1,11.9999999,0
0,NdCrO3,ABC3,59.40619598973787,6.826963263257871,11.881239197947574,-8.851744172,1.904,4.63569432,0,0,1,1,3.0000201,0
0,Rb2NaCeBr6,ABC2D6,390.94642703506406,3.455181916509708,39.09464270350641,-3.999318748,3.2334,1.89748447,0,0,1,1,0.9980017,1
0,Sr2PrNbO6,ABC2D6,625.2890588395003,5.364916962881933,15.632226470987508,-8.131704207999999,2.9917,1.75922319,0,0,0,0,0.0,1
0,Sr2PrNbO6,ABC2D6,161.94971628615008,5.1784960718072615,16.194971628615008,-8.046289555,2.888,1.93165268,1,0,0,0,7.5e-06,1
0,Sr2SmVO6,ABC2D6,144.0952018873996,5.445480717756913,14.40952018873996,-7.766068232,1.6372,2.35901795,0,0,0,0,0.0,1
3,Sr5ZrTi4O15,AB4C5D15,318.88978520707286,5.0030379774916725,12.755591408282914,-8.4693250268,1.9467,4.94894139,0,0,0,0,0.0008796,1
2,Sr5ZrTi4O15,AB4C5D15,321.23468181060133,4.966517615821443,12.849387272424051,-8.454929514,1.7596999999999996,4.65596459,0,0,0,0,0.0127623,1
1,Sr5ZrTi4O15,AB4C5D15,319.14834819563026,4.99898468861006,12.76593392782521,-8.457383740400001,1.9033,4.90791009,0,0,0,0,0.0011935,1
0,SrCaNbVO6,ABCDE6,127.45385316787154,4.788543456300027,12.745385316787154,-8.31537372,0.0,4.72726669,0,1,1,1,2.0000001,1
0,SrPrCrSnO6,ABCDE6,129.3228095728215,6.358886060004088,12.93228095728215,-7.735504263999999,2.0575,4.62640606,1,0,1,1,3.0000006,1
1,VZnO3,ABC3,202.89708302378835,5.380214103185048,10.144854151189415,-7.1620193815,0.8621000000000003,4.07788816,1,0,1,1,3.9999889,1
0,VZnO3,ABC3,54.02571356190828,5.05143604595241,10.805142712381656,-6.71785671,0.0,3.2699687,0,1,1,1,0.8507357,1
6,BaCaSmSbO6,ABCDE6,302.0824075579524,5.997433638650686,15.10412037789762,-7.2561791575,3.5056,2.74161484,0,0,0,0,0.0,1
0,BaCaSmSbO6,ABCDE6,155.17496455549656,5.837665882258698,15.517496455549656,-7.185557778000001,3.2804999999999995,2.97749031,1,0,0,0,0.0,1
1,BaCaSmSbO6,ABCDE6,604.6270412347856,5.992848712266354,15.11567603086964,-7.259007898,3.3997,2.88181961,1,0,0,0,0.0,1
0,BaEuCrSnO6,ABCDE6,134.6091960782422,6.858735914216622,13.46091960782422,-8.123835514,0.0,3.6882733,0,1,1,3,3.7363951,1
0,Cs2AlCuCl6,ABC2D6,258.0362529230625,3.662045325031756,25.803625292306247,-3.880358309,0.8611999999999997,2.27415844,1,0,0,0,0.0001972,1
0,Cs2LiAuCl6,ABC2D6,280.5620314311754,4.039079763489296,28.05620314311754,-3.376974232,0.0,0.56704296,0,1,1,1,1.4990909,1
0,Cs2NaYF6,ABC2D6,194.76139351969945,4.19221677781393,19.476139351969945,-5.688423213,6.863900000000001,-2.12147803,1,0,0,0,0.0,0
0,Cs2YHgF6,ABC2D6,225.09426628610808,4.937460741531245,22.509426628610807,-5.143254709,0.0,0.56146735,0,1,1,1,1.0038741,1
0,Eu2CrSnO6,ABC2D6,128.03899723970662,7.400512798999349,12.803899723970662,-9.046288169,0.0,4.6333587,0,1,1,1,16.0000004,1
0,EuCoO3,ABC3,53.58753660007628,8.022498230674898,10.717507320015256,-8.564379339999999,0.0,4.03967955,0,1,1,3,6.0,1
1,EuCoO3,ABC3,211.81646781083612,8.118460703334325,10.590823390541807,-8.661387889,0.0,3.4580881,0,1,1,1,24.0,1
0,K2LuCuCl6,ABC2D6,269.168762784063,3.2661115786364574,26.9168762784063,-4.305247483,2.4709000000000003,1.83427629,0,0,0,0,0.0081877,1
0,K2NaAlH6,ABC2D6,134.1827847171815,1.6609445173582338,13.41827847171815,-3.107022604,2.3466,0.11558888,0,0,0,0,0.0001736,1
0,K2NaGaCl6,ABC2D6,270.197918487438,2.3576356075298244,27.0197918487438,-3.699680026,2.9202,-0.65898763,1,0,0,0,0.0004669,1
0,K2ScAgBr6,ABC2D6,332.7815819991186,3.545031524426464,33.27815819991186,-3.885949092,2.8359,-0.39311574,0,0,0,0,0.0007241,1
0,KRb2InBr6,ABC2D6,399.179880118019,3.3456885449237066,39.9179880118019,-3.2642519880000003,2.3963,-1.10290869,1,0,0,0,0.0045109,1
0,KTmO3,ABC3,85.9074501087085,4.94891881514753,17.181490021741702,-6.441807396,0.0,-0.51243878,0,1,1,3,2.0086639,1
1,MnNCl3,ABC3,419.0322664163466,2.778771377997429,20.95161332081733,-4.5700135075,0.0,0.72903925,0,1,1,1,28.0000023,0
1,MnNCl3,ABC3,437.2693474462951,2.662877869613641,21.86346737231475,-4.8045241935,0.0,2.29602435,0,1,1,2,0.0,0
0,MnNCl3,ABC3,91.38635296225011,3.185363105736711,18.277270592450023,-4.548204119999999,0.0,2.4484939,0,1,1,3,0.9999997,0
0,NaOsO3,ABC3,58.26098792489951,7.445164566150063,11.652197584979902,-7.098090474,0.0,4.63723922,0,1,0,0,0.0034918,1
1,NaOsO3,ABC3,216.535872538876,8.012762740907654,10.8267936269438,-7.1331451105,0.0,4.19544157,0,1,1,1,6.2211615,0
3,NaOsO3,ABC3,109.94323616993226,7.890665365114763,10.994323616993226,-7.117722989000001,0.0,4.27670639,0,1,1,1,3.3692926,1
5,Nd2MnGaO6,ABC2D6,245.9571971469263,6.8747673957484,12.297859857346314,-8.1380300195,1.2114000000000005,4.98732893,0,0,1,1,8.0032459,1
0,NpSnO3,ABC3,71.96212269995561,9.315640123650487,14.392424539991122,-8.351908697999999,0.0,10.60009497,0,1,1,1,4.6474596,1
0,NpTcO3,ABC3,62.79440236587778,10.128028129511602,12.558880473175556,-9.671323104,0.0,10.23721262,0,1,1,3,2.4492994,1
1,PrZnCr2O6,ABC2D6,222.4397569752396,6.0662333906863655,11.12198784876198,-7.927112766,0.0,3.4482591,0,1,1,1,10.0063884,1
0,Rb2GaAgCl6,ABC2D6,273.22264973594804,3.4110236366816262,27.322264973594805,-3.57850743,1.213,0.06789921,1,0,0,0,4.62e-05,1
0,Rb3InCl6,AB3C6,344.63455488860814,2.813572151928796,34.463455488860816,-3.657311537,3.6985,-1.35783837,1,0,0,0,0.0,1
5,RbCr3S5,AB3C5,354.9418605014718,3.7593380044208935,19.71899225008177,-6.735224210555556,0.0,4.48610783,0,1,1,1,18.0,0
0,Sc3InN,ABC3,88.9827850205707,4.920857348347714,17.796557004114142,-7.209011366,0.0,6.12274614,0,1,0,0,4.89e-05,0
0,Sr2PrTaO6,ABC2D6,160.9425597251715,6.119278340868598,16.09425597251715,-8.350645830000001,3.37,1.99023115,1,0,0,0,7.98e-05,1
6,SrPrEuNbO6,ABCDE6,303.0892808834431,6.239096892925381,15.154464044172157,-9.025180352,0.1748000000000003,4.8235723,1,0,1,1,13.9961526,1
0,SrPrEuNbO6,ABCDE6,161.5608770067332,5.852293654484399,16.156087700673318,-8.872852937000001,0.5263999999999998,4.22686715,0,0,1,1,6.9999999,1
1,SrPrEuNbO6,ABCDE6,625.2050504589195,6.049226215465868,15.630126261472986,-8.967655639250001,0.1548999999999996,4.67269181,1,0,1,3,0.0397268,1
0,TbVO3,ABC3,56.75255092161906,7.544947010877843,11.350510184323811,-8.60458872,0.0,6.79321543,0,1,1,1,2.0022212,1
1,TbVO3,ABC3,226.45903361633887,7.563310371821145,11.322951680816944,-9.004759297000001,1.4395999999999995,4.90834111,1,0,1,1,7.9999998,0
0,BaTbNdFeO6,ABCDE6,142.0190200068599,6.92580932730912,14.20190200068599,-7.762501456,0.0,3.1259324,0,1,1,1,4.0000003,1
5,Ca2SmYMn4O12,ABC2D4E12,228.2204079991248,5.319993492526474,11.41102039995624,-8.328698489,0.0,3.84031837,0,1,1,1,14.0010995,1
6,Ca5La7Mn7Ru5O36,A5B5C7D7E36,745.0783455170646,5.880638738455507,12.41797242528441,-8.217998192833333,0.0,5.89447289,0,1,1,1,41.4736814,1
5,Ca8TiMn7O24,AB7C8D24,1758.6044549814878,4.29455111502744,10.9912778436343,-7.793670131874999,0.4087999999999998,2.8445225,1,0,1,1,84.0000544,1
0,Ca8TiMn7O24,AB7C8D24,443.2968005188504,4.259232592133167,11.08242001297126,-7.73047682925,0.0,3.45160827,0,1,1,1,21.3245252,1
4,CaMnO3,ABC3,231.9933662023385,4.094612613977578,11.599668310116924,-7.618064101499999,0.0,3.72714729,1,1,1,1,12.0013055,1
1,CaMnO3,ABC3,218.02043676963348,4.357036329648904,10.901021838481672,-7.7027377015,0.4685999999999999,2.96979386,1,0,1,1,12.0051162,0
0,CaMnO3,ABC3,54.946370694131424,4.322045985981163,10.989274138826286,-7.621263018,0.0,3.45498413,0,1,1,1,3.153875,1
1,CaTlCl3,ABC3,285.1063935878464,4.086550330740566,28.51063935878464,-4.210446287,3.9835,0.56876352,0,0,0,0,0.0,1
5,CaTlCl3,ABC3,157.40066040659983,3.7010696905684983,31.48013208131997,-4.17169119,4.1784,-0.17562019,0,0,0,0,0.0,1
0,Cs2LiScF6,ABC2D6,169.87332870481927,4.219919569866122,16.98733287048193,-5.695175324999999,6.6268,-1.905,0,0,0,0,5.51e-05,1
0,Cs2RbScCl6,ABC2D6,359.8446710228578,2.81007248313517,35.984467102285784,-4.46085253,4.0707,-1.15249378,0,0,0,0,0.0001978,1
0,Cs2RbTlBr6,ABC2D6,444.1764604671049,3.869634930210509,44.41764604671049,-3.087981516,1.5133,-1.19833333,1,0,0,0,0.0009532,1
0,Cs3YF6,AB3C6,243.39830415208303,4.104388771673667,24.339830415208304,-5.59831171,5.9892,-2.41428715,0,0,0,0,0.0,1
2,Cs3YF6,AB3C6,270.0886197680465,3.698790669018818,27.00886197680465,-5.564408121,5.338699999999999,-2.30864761,0,0,0,0,0.0010419,0
0,CuNF3,ABC3,58.76201311227689,3.8021512263930006,11.752402622455378,-3.882089022,0.0,-0.59112328,0,1,1,3,2.3233711,1
0,K2NaNdF6,ABC2D6,188.5770208921128,3.164908092818663,18.85770208921128,-5.469399987,5.990500000000001,-2.86169064,1,0,0,0,0.0003738,1
0,LiBeO3,ABC3,43.1416576665112,2.461513393735289,8.62833153330224,-5.445053,0.0,1.11066553,0,1,1,1,3.0302921,1
0,LiLaHfTiO6,ABCDE6,127.40835870900598,6.102144184179696,12.740835870900598,-8.901309623,2.3844000000000003,3.78615842,1,0,0,0,0.0,1
1,MgTlCl3,ABC3,491.4983577166352,4.527861565141662,24.57491788583176,-3.772317661,4.4363,5.67630074,0,0,0,0,0.0,1
0,Mn3HgN,ABC3,66.16578924560412,9.521937560061431,13.233157849120824,-7.361591122,0.0,5.58395839,0,1,1,1,9.7941468,1
0,NaNdNb2O6,ABC2D6,132.4525338793127,5.629563917978531,13.245253387931273,-8.541583917,0.0,5.50783217,0,1,0,0,0.0102313,1
4,NiNF3,ABC3,372.4108054810208,3.469783236832922,12.413693516034026,-4.352784230666667,0.0,-1.36295782,0,1,1,1,24.0112232,0
0,NiNF3,ABC3,60.64458568911548,3.551250715927236,12.128917137823096,-4.063607722,0.0,-0.01141488,0,1,1,1,2.0861023,0
0,PaSiO3,ABC3,55.782551954834126,9.14235801045292,11.156510390966826,-8.354445896,0.0,13.01750207,0,1,1,1,2.434966,1
5,Pr2MgIrO6,ABC2D6,251.19463799680224,7.857765876829648,12.559731899840113,-7.8403252585,0.0,4.95613494,0,1,1,1,2.000452,0
1,PrEuFeCuO6,ABCDE6,1695.939966054014,1.990598783851344,42.39849915135035,-3.41329400625,0.0,-1.94244708,0,1,1,3,24.178885,1
1,PrMnO3,ABC3,237.7429455944275,6.81260699932876,11.887147279721376,-8.703889929,0.0,4.04935219,0,1,1,1,15.9999997,0
0,Rb2InHgF6,ABC2D6,202.59089274063365,4.920646127794326,20.259089274063363,-4.204063703,0.0,1.00682027,0,1,0,0,0.0881671,1
0,Rb2NaSbI6,ABC2D6,469.8001487907046,3.807122824491285,46.98001487907046,-2.844870991,1.8884000000000003,0.69416667,0,0,0,0,0.0038314,1
0,Rb2NbCuF6,ABC2D6,167.8818233043433,4.365726203105923,16.78818233043433,-5.348030452,0.0,2.9426138,0,1,1,1,2.0000463,1
0,Rb3ScF6,AB3C6,197.77894572248584,3.487249122700703,19.777894572248584,-5.600902527,6.0743,-2.69596021,1,0,0,0,0.0,1
2,Rb3ScF6,AB3C6,383.83522196164137,3.593752816297481,19.19176109808207,-5.620875828,6.2397,-2.8158814,0,0,0,0,0.0,1
0,Sr2TbHfO6,ABC2D6,156.9970502549715,6.437636931318408,15.699705025497147,-8.160705181,0.0,1.52134541,0,1,0,0,1.00009,1
0,Sr2TbHfO6,ABC2D6,613.7392332896765,6.5870972817696645,15.343480832241912,-8.2197372215,0.0,1.43762977,0,1,0,0,4.0000012,1
0,Sr2TmReO6,ABC2D6,142.1429715965891,7.317452844594237,14.214297159658908,-8.048998181,0.0,4.6616237,0,1,1,1,2.0008048,0
6,Sr6La14Mn17(CuO20)3,A3B6C14D17E60,1212.0406959801012,6.240437896752348,12.120406959801011,-8.2151637018,0.0,5.78543277,0,1,1,3,55.162297,1
5,SrMoO3,ABC3,135.04259794686644,5.694668839870292,13.504259794686645,-8.073330959,1.3088000000000006,4.32610285,0,0,1,1,4.0000009,1
2,SrMoO3,ABC3,134.51072644002824,5.71718624184237,13.451072644002824,-8.033093228999999,0.0,4.86954917,0,1,1,1,3.9999994,1
1,SrMoO3,ABC3,126.32524882412751,6.087641874775175,12.632524882412753,-8.064238283,0.0,5.10344704,0,1,1,3,0.2020207,0
0,SrMoO3,ABC3,67.94623090034395,5.659054699524615,13.58924618006879,-7.989233433999999,0.0,5.12497067,0,1,1,1,2.0000939,0
5,SrNdMgRuO6,ABCDE6,250.84857937287887,6.000526444036261,12.542428968643945,-7.4805687315,0.3618999999999999,4.11727524,0,0,1,1,6.0615026,1
0,SrNdZrCrO6,ABCDE6,131.75439223677634,5.937139850939875,13.175439223677634,-8.684826247999998,2.4527,3.59923824,0,0,1,1,2.9999998,1
0,Tb3SnC,ABC3,178.5231624428596,5.650650999028847,35.70463248857192,-3.979349696,0.0,2.14799478,0,1,0,0,0.0151176,0
0,TbBPd3,ABC3,81.0538877914589,10.017996233431402,16.21077755829178,-5.989051826,0.0,5.16835018,0,1,0,0,0.0,0
0,Tm3AlN,ABC3,101.02200807164854,9.004257141591417,20.204401614329708,-6.128227868000001,0.0,4.16587875,0,1,0,0,2.77e-05,1
0,ZnGaO3,ABC3,56.10200871917653,5.420391503207033,11.220401743835303,-4.974319698,0.0,1.71497165,0,1,1,1,0.9983861,1
0,Ba2TaTlO6,ABC2D6,155.14504815596007,8.09137618081153,15.514504815596007,-7.591215664000001,2.241,2.78579734,0,0,0,0,0.0001591,1
0,BaNaZrBiO6,ABCDE6,150.83648208524238,6.126628997595312,15.083648208524238,-7.091793678,1.0145,2.35122655,0,0,0,0,0.0,1
2,BaSr4(FeO3)5,AB4C5D15,615.6996839141556,5.431872310975166,12.313993678283111,-7.2140211386,0.0,2.59445001,0,1,1,1,42.9998456,1
2,BaSr4(FeO3)5,AB4C5D15,609.4482532206112,5.487589877001156,12.188965064412224,-7.215098917600001,0.0,2.68525689,0,1,1,1,42.2814734,1
1,BaSr4(FeO3)5,AB4C5D15,612.2152101296989,5.462788263984728,12.24430420259398,-7.211896647800001,0.0,2.58253119,0,1,1,1,43.0231397,1
1,BaSr4(FeO3)5,AB4C5D15,306.3280051665465,5.458857839509574,12.25312020666186,-7.214836469200001,0.0,2.4737154,0,1,1,1,21.0459576,1
6,BaSrTbTiO6,ABCDE6,299.05392761515475,5.860654208455496,14.952696380757738,-7.900660963,0.0,1.90104529,0,1,0,0,2.0,1
1,BaSrTbTiO6,ABCDE6,594.7476948423098,5.893765287808628,14.868692371057744,-7.905302087,0.0,1.90939294,0,1,0,0,4.0000001,1
1,BaThO3,ABC3,367.7631283410378,7.537982410796209,18.38815641705189,-8.610439182,4.047,2.6543675,1,0,0,0,0.0,1
0,BaThO3,ABC3,97.34330038250653,7.119627087536885,19.4686600765013,-8.527033092,3.2033000000000005,2.97104036,1,0,0,0,0.0,0
0,BePtO3,ABC3,42.97374946621928,9.741122777998369,8.594749893243854,-5.646703856,0.0,4.9202169,0,1,0,0,0.0007334,1
6,Ca6La2Mn7CrO24,AB2C6D7E24,453.04137449486313,4.907221696193727,11.326034362371578,-8.01708756925,0.0,4.26348645,0,1,1,1,25.0011377,1
1,CaFeO3,ABC3,210.95958245175632,4.53142298319831,10.547979122587815,-7.2924198515,0.0,2.99028011,0,1,1,1,15.5379632,0
5,CaFeO3,ABC3,226.6302730514852,4.218090935409315,11.33151365257426,-7.2877994345,0.0607000000000002,2.73829756,0,0,1,1,15.999247,0
1,CaFeO3,ABC3,227.3429585065414,4.204867864514492,11.367147925327073,-7.239529129999999,0.0,3.15776271,0,1,1,1,16.4426158,1
0,CaFeO3,ABC3,56.47327359803378,4.231856237217894,11.294654719606756,-7.2402726,0.0,3.31896132,0,1,1,1,4.0602088,1
1,DyLuO3,ABC3,271.54834506925243,9.428597670172415,13.577417253462622,-8.785891342,4.9717,1.9036676,1,0,0,0,2.31e-05,1
0,Eu2ErTaO6,ABC2D6,145.52501214954464,8.536685199578253,14.552501214954464,-10.172297243,0.6359000000000004,4.79543482,1,0,1,1,14.0012898,1
0,Eu2ZrVO6,ABC2D6,132.71855524590197,6.782483842530239,13.271855524590196,-10.00717876,0.0,4.49420095,0,1,1,1,15.0000001,1
0,GaSnO3,ABC3,58.05563839429101,6.762534269224833,11.6111276788582,-5.893821714,0.0,5.33198505,0,1,0,0,0.0007614,1
1,H4PbI3N,ABC3D4,888.0377064464403,4.532270399376386,24.66771406795668,-4.030756175555555,2.4422,3.97392887,0,0,0,0,0.0001818,0
5,H4PbI3N,ABC3D4,258.3166779466308,3.895245017134397,28.7018531051812,-3.989618375555555,2.7535,0.51136562,1,0,0,0,0.0005661,1
5,H6PbCI3N,ABCD3E6,1024.626990572924,4.019017442042852,21.346395636935917,-4.380230620208333,1.594,1.19703198,1,0,0,0,6.03e-05,1