Shape,formula_pretty,formula_anonymous,volume,density,density_atomic,energy_per_atom,band_gap,efermi,is_gap_direct,is_metal,is_magnetic,ordering,total_magnetization,theoretical
6,BaBiO3,ABC3,207.7249421635248,6.304104323338448,20.77249421635248,-5.720806651,1.1031000000000004,2.95239625,0,0,0,0,3.56e-05,1
0,BaCeEuHfO6,ABCDE6,161.00905826381089,7.259482801935091,16.100905826381087,-9.380179404,0.1745999999999998,4.74490985,0,0,1,1,7.0000145,1
1,BaCeEuHfO6,ABCDE6,635.6799846880965,7.35491138671233,15.891999617202412,-9.6216710935,0.0,6.09981331,0,1,1,1,21.8392475,1
0,BaSrNiWO6,ABCDE6,266.66530258752465,7.017600193528353,13.333265129376231,-7.772262051999999,3.3716000000000004,3.01992194,0,0,1,2,0.0,1
1,Ca3V2O7,A2B3C7,276.2539551268662,4.016647340280244,11.510581463619424,-7.8963130333333345,0.9998000000000004,3.60395065,0,0,1,1,3.9998363,1
0,CaRhO3,ABC3,61.82709777288515,5.129345954756469,12.36541955457703,-6.678481974,0.0,4.07299544,0,1,1,1,1.3301973,1
1,CaRhO3,ABC3,226.3073630109768,5.605342568377663,11.31536815054884,-6.9220317135,0.0,3.66292874,0,1,1,1,3.9806026,0
1,CaRhO3,ABC3,111.3420908940552,5.696544250411837,11.13420908940552,-6.93581445,0.0,4.01795304,0,1,1,1,1.9944838,0
5,CaRhO3,ABC3,335.78585891721,5.666693199260762,11.192861963907,-6.935578542000001,0.0,4.00400041,0,1,1,3,0.1026814,0
0,Cs2InBiF6,ABC2D6,239.89416354606627,4.8702928408930735,23.989416354606625,-4.677374159,2.2862,1.99660654,1,0,0,0,0.0014746,1
0,Cs2KDyCl6,ABC2D6,365.08244241714704,3.0934870071809173,36.50824424171471,-4.380857208,5.1988,-1.4005285,1,0,0,0,0.0002781,1
0,Cs2LiBiF6,ABC2D6,187.4169916381801,5.278181267110408,18.74169916381801,-4.832720519,4.8946000000000005,-0.19958333,0,0,0,0,0.0007947,1
0,CsTlI3,ABC3,503.7605164840436,4.733481885637112,50.37605164840436,-2.6477376720000003,0.0,1.25926819,0,1,0,0,0.0013967,1
1,ErNiO3,ABC3,205.77977925513696,8.842572876016028,10.288988962756848,-7.555905561,0.0,3.5501895,0,1,1,1,4.0000005,0
5,ErNiO3,ABC3,213.8945756855631,8.507100699687618,10.694728784278157,-7.554328853999999,0.3404000000000002,3.88774634,0,0,1,1,4.0001758,0
0,EuPbO3,ABC3,78.6682649547427,8.594428006411011,15.73365299094854,-7.768094994,0.0,4.60386476,0,1,1,1,6.854555,1
1,GdScS3,ABC3,431.9132118420603,4.588943873902729,21.595660592103016,-8.861792824,1.1773999999999996,3.76566989,1,0,1,1,28.0000007,0
0,Ge2O3,A2B3,52.07457490233922,6.163199650194571,10.414914980467843,-6.304884716,0.6820000000000004,5.46782183,0,0,0,0,0.0,1
5,GePbO3,ABC3,963.397868023716,6.780851276832049,16.0566311337286,-6.552029497333334,2.6118999999999994,2.12917681,0,0,0,0,0.0,0
3,GePbO3,ABC3,513.9167066238759,6.355755299726998,17.130556887462532,-6.565139741,2.7131,1.80417197,0,0,0,0,0.0,0
0,GePbO3,ABC3,58.79294308872988,9.259412950330407,11.758588617745977,-6.347383798,0.0,6.41340042,0,1,0,0,0.0001146,0
0,K2LiCeBr6,ABC2D6,353.2421728102753,3.3125848899882264,35.324217281027536,-4.043891286,0.2916000000000003,1.94333333,0,0,1,1,0.9997924,1
0,K2NiHgF6,ABC2D6,161.8255765978921,4.632668606883517,16.18255765978921,-4.401604224000001,1.9584,1.05578199,1,0,1,1,1.9995979,1
0,K2TbAuCl6,ABC2D6,311.7002310823576,3.445770603382292,31.17002310823576,-4.122746327,1.9648,0.63817125,0,0,0,0,0.0003143,1
5,La2TiNiO6,ABC2D6,498.0557307459924,6.406266201652534,12.45139326864981,-8.639669076,2.8034,6.2123886,0,0,1,2,8e-07,1
0,La2TiNiO6,ABC2D6,122.68202066554844,6.501925826433286,12.268202066554844,-8.546707825999999,0.0,8.85222269,0,1,1,1,2.0000001,1
0,La8MgAl7O24,AB7C8D24,450.9933855735442,6.290277310096704,11.274834639338604,-8.28199891225,0.0,7.51285952,0,1,0,0,0.0007455,1
6,MgHg2(BiO3)2,AB2C2D6,197.642181930946,7.8929531068306575,17.967471084631455,-5.023918035454546,1.6188000000000002,2.43613675,0,0,0,0,0.0,1
3,MgHg2(BiO3)2,AB2C2D6,172.98019331832535,9.018260668965198,15.725472119847758,-5.044878698181818,0.9247,3.75132288,1,0,0,0,0.0,1
0,Na2MnAgF6,ABC2D6,155.99240711479123,3.435952456694674,15.599240711479124,-5.049167018,0.0,0.49878592,0,1,1,1,3.9999903,1
1,NdInO3,ABC3,273.9447173906445,7.445036964779801,13.697235869532223,-7.3473251585,2.6533,3.95474313,1,0,0,0,0.0,1
0,NdInO3,ABC3,71.77626339859677,7.103770977716351,14.355252679719351,-6.937201969999999,1.6467999999999998,5.2204603,0,0,0,0,1.69e-05,1
0,Rb2LaAuCl6,ABC2D6,336.25758001306264,3.5532297381472078,33.62575800130627,-4.177626906,2.301,0.88689958,0,0,0,0,0.0002705,1
0,Rb2NaInBr6,ABC2D6,355.7615279906896,3.6788202341627,35.57615279906896,-3.2656716509999995,2.0049,-0.64342648,1,0,0,0,0.0001313,1
0,Rb2TbAgCl6,ABC2D6,314.7885774597591,3.4311693011532585,31.47885774597591,-4.230105436,3.7266,-0.23980397,0,0,0,0,0.0002111,1
6,Rb3AuF6,AB3C6,355.2260303074387,2.652182016706541,35.522603030743866,-4.062757228,1.0184000000000002,-2.14537671,0,0,0,0,0.0003617,1
0,Rb3AuF6,AB3C6,218.11143904355328,4.319462076719942,21.81114390435533,-4.062453052,0.7746999999999999,-0.93445648,0,0,1,1,2.0018736,1
0,ScRu3C,ABC3,66.98805020090266,8.928269046612304,13.397610040180531,-8.953600441999999,0.0,7.02019737,0,1,0,0,7.28e-05,0
0,Sr2FeRuO6,ABC2D6,125.2648997899438,5.675669140451097,12.52648997899438,-7.373137807000001,0.0,3.37781394,0,1,1,1,7.8719839,1
2,Sr3Ca5Mn8O24,A3B5C8D24,450.7515457314318,4.740265435292385,11.268788643285797,-7.607816624,0.0,3.21200955,0,1,1,1,24.6282178,1
6,Sr3Ca5Mn8O24,A3B5C8D24,1799.0698749998407,4.750636985982571,11.244186718749004,-7.636936838125,0.1762999999999999,2.6965737,1,0,1,1,96.000012,1
6,SrCa3Mn4O11,AB3C4D11,931.8869979619906,4.30224130335697,12.261671025815666,-7.70355952631579,0.0,3.09351075,0,1,1,1,56.0006396,1
1,SrCa3Mn4O11,AB3C4D11,459.5001933852652,4.362569146224402,12.09211035224382,-7.661557060000001,0.0,3.53981605,0,1,1,1,27.9999916,1
6,Ba2NdMgMoO6,ABCD2E6,176.98595049870303,5.959063204660866,16.08963186351846,-7.421123479090909,2.4982,3.11027572,0,0,1,1,3.0,1
5,Ba3BiIrRuO9,ABCD3E9,468.3889390415055,7.503395989888085,15.61296463471685,-6.976008584666667,0.0643000000000002,4.15607267,0,0,1,1,4.0041936,1
3,Ba4Er(RuO4)3,AB3C4D12,298.1090296312807,6.749849526915936,14.905451481564034,-7.50338859,0.0,3.63155559,0,1,1,3,2.9578356,0
0,BaCeEuCrO6,ABCDE6,142.9487898426028,6.707258087606131,14.29487898426028,-8.775190839999999,0.0,3.61366111,0,1,1,3,4.2425781,1
3,BaVO3,ABC3,339.45338739887467,5.778850647108947,13.578135495954989,-7.999602808000001,0.0,3.75245735,0,1,1,1,4.9995614,0
0,BaVO3,ABC3,63.16295592953194,6.211395266623796,12.632591185906389,-7.959825548,0.0,4.17669867,0,1,1,1,0.9983727,0
6,Ca4La4Mn7NiO24,AB4C4D7E24,462.66039147757033,5.538639977107418,11.56650978693926,-8.129230654999999,0.0,5.332157,0,1,1,1,25.0082133,1
5,CaLaMgTaO6,ABCDE6,252.9781136898748,6.304460340892075,12.64890568449374,-8.5479749005,3.9825,3.75961271,0,0,0,0,1.06e-05,1
0,Cs2GaAgI6,ABC2D6,410.1859893278984,4.87745936865782,41.01859893278984,-2.714132304,0.0,1.55005761,0,1,0,0,0.0010953,1
0,Cs2SbAuF6,ABC2D6,214.73223997176507,5.401763861487514,21.473223997176508,-4.432030795,0.9819,1.56850102,0,0,0,0,0.0014862,1
0,Cs2TlGaCl6,ABC2D6,329.61486616047586,3.7916377175776,32.96148661604759,-3.654159013,2.6597,0.06826416,0,0,0,0,0.0001188,1
0,CsCdF3,ABC3,90.32609495079797,5.557644493354357,18.06521899015959,-4.219606678,3.2859,-1.36353217,0,0,0,0,0.0,0
0,EuNiO3,ABC3,54.54536765826052,7.874320900829366,10.909073531652105,-8.185839854,0.0,3.9628157,0,1,1,3,6.9901686,1
1,EuNiO3,ABC3,215.03561772695767,7.989517887966484,10.751780886347886,-8.257220939000002,0.0,3.61542515,0,1,1,1,27.9999987,0
0,K2TaCuBr6,ABC2D6,301.0860851672876,4.423792714251469,30.10860851672876,-4.045552344,0.0,2.59051193,0,1,1,1,1.9991147,1
5,K3YF6,AB3C6,367.9462497998664,2.8900413879805966,18.39731248999332,-5.720462941999999,6.459300000000001,-3.25881935,0,0,0,0,0.0,0
0,K3YF6,AB3C6,210.05489227621808,2.5311952484199645,21.005489227621805,-5.649809029,5.8597,-3.3382134,1,0,0,0,0.0005285,1
5,K4BaNb5O15,AB4C5D15,339.1709899501533,4.887274308918651,13.566839598006132,-8.1814390608,0.0,3.48927366,0,1,0,0,1.78e-05,1
6,K5Na3Ta3Nb5O24,A3B3C5D5E24,522.2418747467644,5.264911077946957,13.05604686866911,-8.27569813775,1.4641000000000002,1.50603853,1,0,0,0,0.0012257,1
0,KCeMnWO6,ABCDE6,134.13199450985206,6.363123086211287,13.413199450985209,-8.379528497999999,0.1443000000000003,4.68845556,0,0,1,1,6.0,1
0,KCrO3,ABC3,57.72427493335193,4.00124031772841,11.544854986670384,-6.79726811,0.0,2.02267008,0,1,1,3,1.0000208,1
0,KGdZrTiO6,ABCDE6,131.5409348738704,5.446333761143338,13.15409348738704,-9.438001746,0.8262999999999998,2.483648,0,0,1,1,6.9999999,1
0,KRhO3,ABC3,63.59654676556202,4.961051500094684,12.719309353112404,-5.852144456,0.0,2.08343411,0,1,1,1,2.3977427,1
0,KTlI3,ABC3,493.9444103243764,4.196829350092661,49.39444103243763,-2.588186391,0.0,1.02224357,0,1,0,0,0.0211598,1
6,La2Nd(GaO3)3,AB2C3D9,727.5778783966467,7.0770560126497335,12.126297973277444,-7.632295543833334,3.4333,4.72124852,0,0,0,0,0.0009021,1
6,Rb12Mg(ClO)4,AB4C4D12,722.5894420550784,2.885712981359001,34.409021050241826,-3.2871983633333337,0.7576,1.39117773,0,0,0,0,0.0,1
6,Rb12Mg(ClO)4,AB4C4D12,735.9282146292597,2.833409144642941,35.044200696631414,-3.288463001904762,0.7497,1.27517002,0,0,0,0,0.0,1
5,Rb12Mg(ClO)4,AB4C4D12,709.5972377942172,2.9385482666379827,33.79034465686749,-3.218764227619048,0.8332999999999999,1.26386855,0,0,0,0,0.0,1
0,Rb2LiBiCl6,ABC2D6,300.131828090624,3.3172680058313277,30.013182809062403,-3.817399818,3.6154,-0.24625,0,0,0,0,0.0004495,1
0,RbBO3,ABC3,50.39388070820404,4.754100925449175,10.078776141640809,-5.098590140000001,0.0,2.12918879,0,1,1,1,1.999727,1
0,Sr2CaMoO6,ABC2D6,145.73268991655655,4.640426534581612,14.573268991655656,-7.439077095,2.2564,2.39081137,0,0,0,0,0.0002893,0
1,Sr2CaMoO6,ABC2D6,297.0774854872558,4.552764004552972,14.85387427436279,-7.446956077999999,2.0125,2.26930336,0,0,0,0,1.91e-05,1
1,Sr2CaMoO6,ABC2D6,292.9862332013792,4.616338684964258,14.64931166006896,-7.440282893999999,2.1579,2.38032159,0,0,0,0,0.000566,0
5,Sr2CaMoO6,ABC2D6,286.3458538296092,4.723391885723998,14.31729269148046,-7.5118813395,2.6243,1.94062282,0,0,0,0,0.0003828,0
3,Sr3La2Fe4CoO15,AB2C3D4E15,297.7515132308825,5.928136919738188,11.910060529235302,-7.6234101296,0.0,4.16802344,0,1,1,3,3.0044943,1
0,SrCaNdFeO6,ABCDE6,140.88922848771446,4.994743586517718,14.088922848771446,-7.185092915,0.2993999999999999,2.45219128,0,0,1,1,3.0000004,1
0,SrCaNdFeO6,ABCDE6,130.25687473818323,5.402444760116437,13.025687473818325,-7.221255488,0.7082000000000002,2.97390816,0,0,1,1,3.0000008,1
0,SrCaYNbO6,ABCDE6,148.56340777694118,4.532472773452529,14.856340777694118,-8.32211414,2.8753,2.08407071,1,0,0,0,0.0,1
0,YbCdO3,ABC3,69.29733598081943,7.990284409775507,13.859467196163886,-4.994672274,0.0,0.83207851,0,1,0,0,0.0051183,1
0,Ba3BiN,ABC3,288.80478100000005,3.65087216507948,57.76095620000001,-2.978451112,0.0,1.13056277,0,1,0,0,0.0009361,1
0,Ba3BiN,ABC3,176.75777433123696,5.965165266897355,35.35155486624739,-4.389537518,0.0,3.21414197,0,1,0,0,0.0005392,1
4,Ba3BiN,ABC3,350.63115470065736,6.014236453089481,35.06311547006574,-4.445894738,0.6466000000000003,2.9483435,1,0,0,0,0.0,0
4,Ba3ErMn2O9,AB2C3D9,436.0440937626628,6.345288778524624,14.534803125422092,-7.634227766,0.0,1.90344053,0,1,1,3,14.000348,1
6,Ba4Sr2Y3(SbO6)3,A2B3C3D4E18,457.52910900652506,5.968613023739477,15.2509703002175,-7.466432656666667,3.9096,6.87252518,1,0,0,0,0.0051039,1
1,BaNaPrSbO6,ABCDE6,648.3447295692837,5.316850039348838,16.20861823923209,-6.726304095250001,0.0,1.87729754,0,1,0,0,4.0,1
0,BaNaPrSbO6,ABCDE6,163.4836246603101,5.271402117619771,16.348362466031013,-6.720785656999999,0.0,1.94594938,0,1,0,0,0.9999999,1
0,BaSr(SnO3)2,ABC2D6,143.10811661696036,6.478907423128771,14.310811661696036,-6.715938556,0.6697000000000006,4.290903,1,0,0,0,7.65e-05,1
2,BaSr(SnO3)2,ABC2D6,142.61256412903876,6.501420437407373,14.261256412903876,-6.720190809,0.7130999999999998,4.29407846,0,0,0,0,0.0165541,1
0,BaSrCaSeO6,ABCDE6,146.04194376214002,5.002715551823296,14.604194376214002,-6.285530492,2.4917,2.79766973,1,0,0,0,0.0,1
0,BaSrCaSeO6,ABCDE6,138.5709973679886,5.272433028227153,13.857099736798862,-6.427986798000001,2.1937,2.9788188,1,0,0,0,0.0,1
0,CsYbF3,ABC3,86.71260978619291,6.950282649368024,17.34252195723858,-5.524441392,7.0604,-1.93344401,1,0,0,0,0.0,0
6,In5(BiS4)3,A3B5C12,957.1442621469592,5.502412862915977,23.92860655367398,-4.498990142249999,1.2542,4.69810938,1,0,0,0,0.0001571,1
5,In5(BiS4)3,A3B5C12,957.1442621469592,5.502412862915977,23.92860655367398,-4.435594327,1.4268999999999998,5.99536342,0,0,0,0,0.0005408,0
2,K2NaNb(OF2)2,ABC2D2E4,321.0524949367337,3.1248734769862634,16.05262474683669,-6.100330967,2.4266,2.28441677,1,0,0,0,0.0053757,1
5,K2NaNb(OF2)2,ABC2D2E4,319.4494229167897,3.1405548239459256,15.972471145839483,-6.099493707500001,2.3005,-0.07705812,1,0,0,0,0.0054639,1
2,K2NaNb(OF2)2,ABC2D2E4,160.9790996627187,3.1160828587377454,16.09790996627187,-6.097424419,2.2955,0.00231442,1,0,0,0,3.5e-06,1
1,K2NaNb(OF2)2,ABC2D2E4,319.4511393342565,3.140537949681002,15.972556966712824,-6.0988906565,2.4644000000000004,-0.04580268,1,0,0,0,2.04e-05,1
0,KEuBiSbO6,ABCDE6,150.3948050030046,6.821243199456422,15.03948050030046,-6.983035286000001,0.0,3.97626641,0,1,1,1,6.4024315,1
0,KMgH3,ABC3,63.4304022052392,1.7389898850840848,12.68608044104784,-2.9351239380000003,2.5126,0.04181739,0,0,0,0,0.0,0
0,KMgH3,ABC3,87.28447768517216,1.2637393356420887,17.456895537034434,-1.886475082,1.2423000000000002,-0.88620916,0,0,0,0,2e-05,1
0,KNdZr2O6,ABC2D6,145.83952778718017,5.257912901549908,14.583952778718018,-8.630477225,2.511,1.97497424,1,0,0,0,0.0,1
5,La2NbNiO6,ABC2D6,260.6686379271714,6.694008574008445,13.03343189635857,-8.609308727999998,0.2076000000000011,8.79361243,0,0,1,1,5.9999881,1
0,La3AlN,ABC3,132.4574297540407,5.737967672904658,26.49148595080814,-6.2124493780000005,0.0,7.72370315,0,1,0,0,0.0349912,0
1,NaErTi2O6,ABC2D6,223.41141606790396,5.678235645971351,11.170570803395195,-8.583662703,2.3964,5.03029587,0,0,0,0,0.0010106,1
0,Nd3InN,ABC3,228.32308485838632,4.084023636089754,45.66461697167726,-3.776485136,0.0,1.23430522,0,1,1,3,0.7720531,0
0,Nd3InN,ABC3,127.13188780825314,7.334720590580596,25.42637756165063,-6.011067088,0.0,4.61761831,0,1,0,0,0.0235942,0
0,PrNbO3,ABC3,68.26407903161855,6.855145839496563,13.65281580632371,-8.87407588,0.0,6.28931697,0,1,0,0,0.0004079,1
0,RbWO3,ABC3,66.83879192428014,7.883131844505645,13.367758384856028,-7.797455308000001,0.0,3.91655849,0,1,1,1,0.9996837,1
3,ScBiO3,ABC3,141.5365353662609,7.08472976865481,14.15365353662609,-7.797074836999999,2.8385,4.00283057,0,0,0,0,6.57e-05,1
5,ScBiO3,ABC3,282.20099549135153,7.106623445574228,14.110049774567576,-7.7840247885,2.8008,3.9059988,0,0,0,0,5e-07,1
1,ScBiO3,ABC3,268.2267728755639,7.47686813446329,13.411338643778194,-7.7863500525,2.4137000000000004,4.66786128,0,0,0,0,1.3e-05,1
5,ScBiO3,ABC3,282.41902134716827,7.101137173256954,14.120951067358414,-7.784773459999999,2.3961,3.86358351,0,0,0,0,5e-06,0
0,ScBiO3,ABC3,67.7074343450527,7.405007405474687,13.54148686901054,-7.461491168,0.6896999999999993,4.46818932,0,0,0,0,0.0003599,1
3,ScBiO3,ABC3,141.88024260616115,7.067566893334792,14.188024260616114,-7.744921897999999,2.1479,4.5376932,1,0,0,0,0.0002792,1
5,Sr2CaTeO6,ABC2D6,288.48199699662354,5.052894223425868,14.424099849831176,-6.625893286999999,3.2142,2.86756709,0,0,0,0,0.0028462,0
0,Sr2FeSnO6,ABC2D6,130.47647366659444,5.673467518334936,13.047647366659444,-6.931282784999999,0.0,3.5131152,0,1,1,1,4.1386319,1
2,Sr2FeSnO6,ABC2D6,130.69934266020445,5.663793100925067,13.069934266020445,-6.930371507000001,0.0,3.5770638,0,1,1,1,4.5491405,1
1,Sr2FeSnO6,ABC2D6,261.7758390606472,5.655632986685284,13.08879195303236,-6.933793983999999,0.0,3.42442741,0,1,1,3,0.909114,1
2,Sr2FeSnO6,ABC2D6,130.0660214195327,5.691371406422825,13.00660214195327,-6.939353657000001,0.0,3.3108772,0,1,1,1,4.0064176,1
1,Sr2FeSnO6,ABC2D6,261.3835323282206,5.6641214437699645,13.069176616411031,-6.939332783999999,0.0,3.46039075,0,1,1,1,8.0703205,1
1,Sr2FeSnO6,ABC2D6,523.1732268104014,5.659724139687875,13.079330670260036,-6.93945258375,0.0,3.47456687,0,1,1,1,16.189028,1
1,Sr2FeSnO6,ABC2D6,529.2190417943756,5.595067273047426,13.23047604485939,-6.928722019,0.0,3.33694363,0,1,1,1,18.0025558,1
1,Sr2FeSnO6,ABC2D6,527.8550667576255,5.609524900850927,13.19637666894064,-6.929724989,0.0,3.33786007,0,1,1,1,18.2004314,1
1,Sr2FeSnO6,ABC2D6,529.4554455588568,5.592569055346637,13.23638613897142,-6.92846861725,0.0,3.34101846,0,1,1,1,17.8502015,1
0,Sr2NdNbO6,ABC2D6,619.1550744961047,5.453837481615649,15.478876862402618,-8.15080489275,3.0047000000000006,1.74156264,0,0,0,0,0.0,1
0,Sr2NdNbO6,ABC2D6,159.8901442553021,5.279830048229205,15.98901442553021,-8.072949757,2.8862000000000005,1.93118844,1,0,0,0,0.0001658,1
1,Sr3GeO,ABC3,517.9996391565651,4.507172912605396,25.899981957828253,-4.488673586500001,0.3188,3.56159972,1,0,0,0,0.0,0
1,SrCa(RuO3)2,ABC2D6,243.56713373219648,5.806322439871118,12.178356686609824,-7.393438745999999,0.0,4.55357088,0,1,1,1,8.0102601,1
0,SrEuAlBiO6,ABCDE6,134.31871785937705,7.06579393093104,13.431871785937703,-7.569068036999999,0.0,4.92281656,0,1,1,1,6.7448447,1
6,SrLaTa2(NO)3,ABC2D3E3,270.09894177458955,8.341945632877922,13.504947088729477,-9.484602769,1.0135000000000003,5.70177746,0,0,0,0,0.0001037,1
0,SrNdEuNbO6,ABCDE6,159.59276806230108,5.959157957488993,15.959276806230108,-8.899912740000001,0.4821,4.13549632,0,0,1,1,6.9999998,1
1,SrNdEuNbO6,ABCDE6,614.2534341242754,6.193134370421725,15.356335853106884,-8.98723002425,0.0962999999999993,4.74909636,1,0,1,1,27.9790709,1
5,TlGeCl3,ABC3,151.03928858108335,4.214938328785889,30.207857716216672,-3.75932138,1.3779,2.6743688,1,0,0,0,0.0002251,1
5,TlV5S8,AB5C8,256.9553800770671,4.624537106498721,18.35395571979051,-6.959854243571429,0.0,6.51384281,0,1,1,3,5.9983273,0
5,TlV5S8,AB5C8,237.09740036712637,5.011863006683718,16.93552859765188,-6.959573984285714,0.0,6.49557066,0,1,1,1,2.0551553,0
1,Ba3NaRu2O9,AB2C3D9,1794.8940249951984,5.781092199352234,14.95745020829332,-6.929855564833334,0.0,3.07602664,0,1,1,1,16.4570752,0
6,BaSrPrCoO6,ABCDE6,292.6768555495591,5.90947024129041,14.633842777477955,-6.983798398500001,0.1057999999999999,2.39867681,1,0,1,1,4.0000001,1
0,BaSrPrCoO6,ABCDE6,145.5965910744398,5.939579887898232,14.55965910744398,-6.953299806,0.0,2.45195405,0,1,1,1,1.9999998,1
5,Ca2MnSbO6,ABC2D6,484.9547243145564,4.832797118682343,12.12386810786391,-7.300543457000001,0.8200000000000003,4.13524902,0,0,1,2,0.0002039,1
5,Ca2MnSbO6,ABC2D6,489.9345221330743,4.783675549448614,12.248363053326855,-7.297526754250001,0.0,4.81916728,0,1,1,2,2.9e-06,0
6,Ca2MnSbO6,ABC2D6,487.0730565039011,4.811778773355341,12.176826412597528,-7.308254733000001,1.4728999999999997,3.92226678,0,0,1,2,9e-06,1
0,Ca3PbO,ABC3,113.79724006134056,5.011409566417092,22.759448012268116,-4.62479418,0.0,5.18116312,0,1,0,0,8e-07,0
0,CaNdZrCrO6,ABCDE6,129.55162712826478,5.428715331261087,12.955162712826478,-8.673179573999999,2.4074000000000004,3.85842451,0,0,1,1,3.0000005,1
0,Ce3AlO,ABC3,112.47581730920872,6.840366415089138,22.49516346184174,-6.7061688660000005,0.0,8.07802166,0,1,1,1,1.5256043,1
0,Cs2KTaBr6,ABC2D6,389.3440343586551,4.116890997290443,38.93440343586551,-4.110279068,0.0,2.03039433,0,1,1,1,2.0123006,1
0,Cs2LiInBr6,ABC2D6,341.24210917394936,4.218931981310846,34.12421091739493,-3.332439543,1.5789,0.00789992,1,0,0,0,0.0,1
0,Cs2RbInBr6,ABC2D6,428.346126218948,3.6654330944888422,42.8346126218948,-3.275028772,2.5058,-0.9215276,1,0,0,0,1e-06,1
0,Cs2TlAsF6,ABC2D6,219.8645052291248,4.977936894316355,21.98645052291248,-4.619546377,2.9734,1.2744412,1,0,0,0,0.0001494,1
0,Cs2TlHgF6,ABC2D6,211.7883459673696,6.153071898340261,21.17883459673696,-3.942893123,0.0,1.06731818,0,1,0,0,0.0022818,1
1,EuTmO3,ABC3,287.91151356357466,8.510488417104973,14.395575678178734,-9.45700875,0.0,1.81255363,0,1,1,1,24.0001357,1
0,EuTmO3,ABC3,77.77437689449803,7.876204539246209,15.554875378899606,-9.106493704,0.0,1.64917401,0,1,1,3,6.0018311,1
1,GdLuO3,ABC3,278.05624247754866,9.08251061281044,13.902812123877434,-10.642339261,3.1346,1.70792262,0,0,1,1,28.0004082,1