Shape,formula_pretty,formula_anonymous,volume,density,density_atomic,energy_per_atom,band_gap,efermi,is_gap_direct,is_metal,is_magnetic,ordering,total_magnetization,theoretical
6,Sr3LaMn2(WO6)2,AB2C2D3E12,271.4630948589684,6.553227238176845,13.573154742948418,-8.5007458825,1.865,6.15814714,1,0,1,1,10.9998779,1
5,Sr3LaMn2(WO6)2,AB2C2D3E12,545.3281603656741,6.524362674381902,13.633204009141853,-8.495096359749999,1.5598999999999998,4.5030199,0,0,1,3,18.0000001,1
6,SrCaNdSbO6,ABCDE6,294.15221606317584,5.528838190352002,14.707610803158792,-7.2522253135,3.4296,2.78748701,0,0,0,0,2.8e-06,1
0,SrCaNdSbO6,ABCDE6,143.97489287579475,5.647929209955256,14.397489287579477,-7.086176309,3.0791,3.51529027,1,0,0,0,0.0,1
2,SrCaNdSbO6,ABCDE6,298.4635811680359,5.4489730357793205,14.923179058401796,-7.1909177645,3.2361,3.05258659,0,0,0,0,2.5e-06,1
2,SrCaNdSbO6,ABCDE6,285.9012701841708,5.688397273992954,14.29506350920854,-7.202080252499999,3.3892,3.28086338,1,0,0,0,1e-07,1
0,SrCaNdSbO6,ABCDE6,155.89143004091108,5.216194390929507,15.589143004091108,-7.101687557,3.0946,2.83620065,1,0,0,0,0.0,1
4,SrGeO3,ABC3,248.667874130049,4.17208147513584,16.5778582753366,-6.862306664,3.0028,0.51530894,1,0,0,0,0.0001186,0
5,SrGeO3,ABC3,480.6018637681073,4.31734751498995,16.020062125603577,-6.974983127333334,3.4179,0.67423282,0,0,0,0,0.0,0
0,SrGeO3,ABC3,57.36998463477624,6.027906042529566,11.473996926955248,-6.824938958,0.0,4.27778075,0,1,0,0,1.44e-05,0
6,SrGeO3,ABC3,901.2435295489332,4.604582877343405,15.02072549248222,-6.9730983885,3.5578000000000003,0.50187314,0,0,0,0,0.3893371,0
1,TbHoO3,ABC3,285.7770895270979,8.642790494132278,14.288854476354896,-8.725198068000001,4.4709,1.86448314,1,0,0,0,7.27e-05,1
0,Ti3InC,ABC3,75.98587116297644,5.909770786937015,15.197174232595287,-7.677729004,0.0,7.73021871,0,1,0,0,8.51e-05,0
0,BaSrLaWO6,ABCDE6,164.19308099791635,6.509838958343032,16.419308099791635,-8.071434290000001,0.0,5.84998483,0,1,1,1,1.0,1
6,BaSrLaWO6,ABCDE6,319.5367213248499,6.690126323753352,15.976836066242496,-8.193351227,2.2543,4.1792971,0,0,1,1,1.9999999,1
1,BaSrLaWO6,ABCDE6,647.1655171846738,6.606473843170467,16.179137929616846,-8.18251453475,2.036,4.17046349,0,0,1,1,4.0,1
1,Ca2YMn3O9,AB2C3D9,671.015313083838,4.730281170631655,11.1835885513973,-8.1899765985,0.0,3.75439186,0,1,1,1,40.0001074,1
5,CdCoO3,ABC3,236.9893852503211,6.1475599926029165,11.849469262516056,-5.727936619499999,0.1331000000000002,2.35419879,0,0,1,2,1.9e-06,1
3,CdCoO3,ABC3,111.68017699771292,6.522672611211341,11.168017699771292,-5.714080059,0.0,1.94217057,0,1,0,0,0.0491322,1
1,CdCoO3,ABC3,217.36109870664112,6.702701044968174,10.868054935332056,-5.674122783,0.0,2.27117526,0,1,1,1,12.0017419,1
0,Cs2InHgI6,ABC2D6,458.3229860098654,4.864507661689355,45.83229860098654,-2.495385332,0.0,2.01755747,0,1,0,0,0.0004284,1
0,Cs2KTbCl6,ABC2D6,367.95711296670464,3.053187196559385,36.79571129667046,-4.381735596,5.0878,-1.32523276,1,0,0,0,0.0003549,0
0,Cs2NaCeF6,ABC2D6,206.48579179472773,4.366007115692354,20.64857917947277,-5.570939311,6.3611,4.08002113,0,0,1,1,0.9989971,1
1,DyScO3,ABC3,250.40624850722796,6.776053476754478,12.520312425361396,-9.1200012305,4.4598,2.71468544,1,0,0,0,0.0014181,0
0,EuErO3,ABC3,79.70974853734867,7.65006990830001,15.941949707469735,-9.080307512,0.0,1.6067655,0,1,1,3,5.985251,1
0,EuZnBiWO6,ABCDE6,131.69240151809768,8.904505786336426,13.169240151809769,-7.836609870000001,0.0,5.89383264,0,1,1,1,7.6390558,1
0,K2AgAuBr6,ABC2D6,317.9076439865116,4.504895873105154,31.79076439865116,-2.959997312,0.0,0.38111489,0,1,0,0,0.0012987,1
0,K2LaAuCl6,ABC2D6,332.5271677597684,3.129980950110914,33.25271677597684,-4.162569153,2.324,0.84808548,0,0,0,0,0.0002466,1
5,K2Na6V5(MoO8)3,A2B3C5D6E24,465.0565387405644,4.079960197333804,11.62641346851411,-7.34713616,0.0,3.53579575,0,1,1,1,2.9980696,1
5,K3Na5VMo7O24,AB3C5D7E24,499.1633631830807,4.453548166506076,12.479084079577015,-7.4288700415,0.0,3.35728411,0,1,1,3,5.0001588,1
0,KPaO3,ABC3,82.6542619610523,6.391337032195199,16.53085239221046,-8.656407697999999,3.0477,2.88447885,0,0,0,0,0.0,1
0,KTbNdSbO6,ABCDE6,146.7146281329804,6.338416993699723,14.67146281329804,-7.236299445999999,3.1416,2.96860027,1,0,0,0,0.0,1
3,La2MgMnO6,ABC2D6,481.905999598425,6.244436583545943,12.047649989960629,-8.222515743,1.715,5.96257819,0,0,1,2,0.0,0
0,LaTaO3,ABC3,67.56898400289603,9.040122158092275,13.513796800579206,-9.458368586,0.0,9.15830718,0,1,0,0,0.0008774,1
6,MgTe(PbO3)2,ABC2D6,132.06734851643827,8.327397808149264,13.206734851643828,-6.048965434,2.2805,5.58722683,0,0,0,0,0.0,1
0,MgTe(PbO3)2,ABC2D6,131.69773470875245,8.350768910308245,13.169773470875246,-6.047358355,2.2736,5.65265383,0,0,0,0,0.0,0
6,Na3TbTi2Nb2O12,AB2C2D3E12,236.9764408239876,4.915083192756912,11.84882204119938,-8.33488895,2.6541999999999994,4.58531039,0,0,0,0,0.0035824,1
1,Na3TbTi2Nb2O12,AB2C2D3E12,478.4001491475758,4.869391965904393,11.960003728689395,-8.3403555725,2.5137,4.36042937,1,0,0,0,0.0024728,1
0,Rb2InAgI6,ABC2D6,427.9459004202136,4.481882769408633,42.79459004202136,-2.710994782,0.0,1.31557488,0,1,0,0,0.0022283,1
5,RbTi5Se8,AB5C8,311.37104687923414,5.100914397307373,22.24078906280244,-6.367893132142856,0.0,4.63220291,0,1,1,3,0.3734161,0
5,Sr2CaWO6,ABC2D6,287.83201040976,5.713216011161228,14.391600520488002,-7.852744155000001,3.5269,5.32057957,0,0,0,0,0.0005766,0
1,Sr2CaWO6,ABC2D6,295.20465399328816,5.57053023437481,14.760232699664408,-7.7798677405,3.1576,2.18763601,0,0,0,0,0.0008762,0
2,Sr2CaWO6,ABC2D6,143.80208022096147,5.717742218579051,14.380208022096149,-7.831987742,3.4605,2.16607606,0,0,0,0,0.0,0
0,Sr2CaWO6,ABC2D6,146.8679810191929,5.598383115863993,14.68679810191929,-7.779724356,3.2349,2.30799136,0,0,0,0,0.0,0
0,Sr2NiBiO6,ABC2D6,135.94710312882984,6.58257086685538,13.594710312882984,-6.2281841060000005,0.0,3.21115422,0,1,1,1,1.0000042,1
0,Sr2PrVO6,ABC2D6,149.11319980428738,5.156965633909211,14.911319980428738,-7.698161305000001,1.6584,2.3350221,0,0,0,0,0.0,1
2,Sr2TiMnO6,ABC2D6,473.7259453410568,5.244470462793416,11.84314863352642,-8.03139723175,0.0,3.11119885,0,1,1,2,0.0,1
0,Sr2TiMnO6,ABC2D6,480.58245606827967,5.169647157171877,12.014561401706992,-8.026855673,0.0,3.02298181,0,1,1,1,12.4426517,1
2,Sr2TiMnO6,ABC2D6,236.33243217244237,5.256243726183258,11.816621608622118,-8.040935327000001,0.9884,3.42550504,1,0,1,2,5.2e-06,1
2,Sr2TiMnO6,ABC2D6,238.82727703093545,5.201335791050051,11.941363851546772,-8.022434739000001,0.0,3.06084602,0,1,1,2,4.74e-05,1
0,Sr2TiMnO6,ABC2D6,236.04939510739092,5.262546270601034,11.802469755369549,-8.040909711500001,0.9951999999999996,3.45350604,1,0,1,2,1e-07,1
0,Sr2YWO6,ABC2D6,148.62108297006054,6.077897964476121,14.862108297006056,-8.27638078,0.0,5.06409292,0,1,1,1,1.0,1
0,SrCaZnWO6,ABCDE6,128.85108192610298,6.094950700072733,12.885108192610298,-7.372630891,3.3286,2.68607318,0,0,0,0,0.0,1
1,Tl2SnO3,AB2C3,418.74198401105656,9.128278737090664,17.447582667127357,-5.430137311666667,1.1414,4.83002086,0,0,0,0,0.0,0
1,BaCe2EuO6,ABC2D6,172.1469992763399,6.41963535772233,17.21469992763399,-8.906563806,0.0743999999999998,5.03653884,1,0,1,1,7.0000047,1
2,BaCe2EuO6,ABC2D6,175.92258599474945,6.281859472627212,17.592258599474942,-8.841204152,0.4386999999999998,4.92491856,0,0,1,1,6.9999989,1
1,BaCe2EuO6,ABC2D6,340.57982615470127,6.489644297241574,17.028991307735062,-8.9712928065,0.2363999999999997,4.85597584,0,0,1,1,13.8807564,1
5,BaLaMn2O6,ABC2D6,252.6249507197836,6.337886404337158,12.631247535989178,-8.17597229,0.9001999999999999,4.40827148,0,0,1,1,14.0011836,1
2,BaLaMn2O6,ABC2D6,124.04157494210853,6.453917734076313,12.404157494210851,-8.15112696,0.0,4.89795777,0,1,1,1,7.0000117,1
2,BaLaMn2O6,ABC2D6,246.7208393056174,6.489554125502711,12.33604196528087,-8.160415441,0.0,5.02532962,0,1,1,1,14.0000604,1
0,BaLaMn2O6,ABC2D6,124.34492127853233,6.438173043580856,12.43449212785323,-8.172284813000001,0.0,4.52360923,0,1,1,1,6.9999889,1
2,BaLaMn2O6,ABC2D6,124.66673416597868,6.421553637683243,12.466673416597867,-8.217453315,0.0,4.86372051,0,1,1,1,6.9999324,0
0,BaPrFeSnO6,ABCDE6,134.97726320540363,6.751364293431746,13.497726320540362,-7.453521406,2.0748,4.27612745,0,0,1,1,5.0000003,1
0,Ca2TiSiO6,ABC2D6,104.9546469690704,3.988675560546208,10.49546469690704,-8.099735941,2.3708,5.03825163,1,0,0,0,0.0,0
1,CaPr(FeO3)2,ABC2D6,235.61402141044053,5.478495034013365,11.780701070522026,-7.849835493,0.0,3.46101404,0,1,1,1,18.0000418,1
0,Cs2NaAlH6,ABC2D6,160.4560085531268,3.330576687851367,16.045600855312678,-3.0414902230000003,1.9338,0.84859158,0,0,0,0,1.48e-05,1
1,Cs2NaTaF6,ABC2D6,185.60344531658555,5.2225397352645775,18.560344531658554,-5.604559229,0.0,4.36264099,0,1,1,1,2.0000558,1
0,Cs2TaAgBr6,ABC2D6,341.31612912093914,5.030767399942143,34.131612912093914,-3.99091954,0.0,2.49245562,0,1,1,1,1.9988339,1
0,Cs2TaAgI6,ABC2D6,415.7676860311189,5.256201548077654,41.57676860311189,-3.5100918640000005,0.0,3.26383552,0,1,1,1,2.0034232,1
0,CsLaO3,ABC3,108.21457999119708,4.907430595888201,21.642915998239417,-6.362289472,0.0,1.67283315,0,1,1,1,1.9999964,1
0,HgRhO3,ABC3,62.60416052292464,9.323166633630525,12.52083210458493,-5.079618962,0.0,2.74651548,0,1,1,1,1.3911544,1
0,K2CuAuF6,ABC2D6,155.87093027653162,4.82274244662678,15.587093027653165,-4.234322432,0.0,0.48109476,0,1,0,0,0.0037507,1
6,K5Na3Nb5(WO8)3,A3B3C5D5E24,522.9510130275796,5.285321947186181,13.07377532568949,-8.031266059250001,0.0,3.5642459,0,1,1,1,3.0002748,1
0,KCaTbNbO6,ABCDE6,152.47872802538322,4.650206273416892,15.24787280253832,-7.687538148,0.0,1.09345748,0,1,0,0,1.0,1
3,KNa7V7MoO24,ABC7D7E24,440.9577312118319,3.903366846292089,11.023943280295798,-7.307594556999999,0.0,2.94631205,0,1,0,0,0.0846323,1
0,KSrPrFeO6,ABCDE6,146.9805311328742,4.739008060928039,14.69805311328742,-6.752715671999999,0.0,1.48736954,0,1,1,1,3.9999995,1
6,La4Fe(NiO4)3,AB3C4D12,236.4766765392368,6.87832839093031,11.82383382696184,-7.810997025499999,0.0,6.75483383,0,1,1,1,7.9998936,1
6,La4Fe(NiO4)3,AB3C4D12,476.5466176730325,6.82646430678768,11.913665441825811,-7.804716673749999,0.0,6.45689528,0,1,1,3,6.0824655,1
6,La9Mn10O30,A9B10C30,605.6246038575828,6.250106374973366,12.359685793011892,-8.698368940000002,0.0,6.36012583,0,1,1,1,37.0050661,1
5,La9Mn10O30,A9B10C30,603.7073333289761,6.269955636514244,12.320557823040328,-8.68029222244898,0.0,6.38837154,0,1,1,1,37.1449866,1
6,La9Mn10O30,A9B10C30,1210.6028051906994,6.253443625243762,12.353089848884688,-8.696686126020408,0.0326999999999992,,0,0,0,-1,73.9999999,1
6,Li3La8Ti9Cr3O36,A3B3C8D9E36,708.5135327897164,5.37839493098156,12.008703945588412,-8.904839609152544,1.2976,5.29893107,1,0,1,1,8.9999796,1
0,LuVO3,ABC3,57.22734779374253,7.947822037687013,11.445469558748506,-8.455128082,0.0,6.32467705,0,1,1,1,1.9970962,1
1,LuVO3,ABC3,225.24094157379776,8.077266464533315,11.26204707868989,-9.013287189500002,1.5724999999999998,4.42143324,0,0,1,1,7.9962171,0
0,NaEuHfNbO6,ABCDE6,136.03324703115936,6.620349454048216,13.603324703115936,-9.415845913,0.0038,4.20486565,1,0,1,1,6.9999966,1
0,NaNdZrTiO6,ABCDE6,129.85745636985308,5.144615615515728,12.985745636985309,-8.559721419999999,2.1492000000000004,2.65836184,1,0,0,0,0.0,1
1,NaZnF3,ABC3,230.075798391036,4.197440733306816,11.5037899195518,-4.43257325,3.7676,-1.12786622,1,0,0,0,0.0,0
0,NpTiO3,ABC3,60.15965754889231,9.187812747477974,12.03193150977846,-10.281836402,0.0,10.22259608,0,1,1,1,4.2813682,1
0,Rb2LiSbI6,ABC2D6,434.6535747591424,4.053658737367012,43.465357475914246,-2.895497525,1.7214999999999998,1.12020833,0,0,0,0,0.0006849,1
0,Sr2CeNiO6,ABC2D6,133.7454577496391,5.835932129017341,13.37454577496391,-7.126067291999999,1.3228999999999995,3.61608279,0,0,0,0,0.0,1
0,SrAsO3,ABC3,62.80174892271716,5.56687622512511,12.560349784543432,-6.5149823,0.0,5.35715693,0,1,0,0,7.64e-05,1
1,SrCaTi2O6,ABC2D6,239.3672538318557,4.431878869731522,11.968362691592786,-8.453270929999999,2.0158,3.17272937,0,0,0,0,1.81e-05,1
6,SrCoO3,ABC3,259.7974268506855,4.9740322030934,12.989871342534276,-6.660390812999999,0.0,1.52565265,0,1,1,1,3.9999997,1
2,SrCoO3,ABC3,232.1834068550809,5.565603437986736,11.609170342754044,-6.698450142,0.0,3.03658625,0,1,1,2,0.0095115,1
2,SrCoO3,ABC3,112.93253836834432,5.721295147113838,11.293253836834433,-6.715478788,0.0,2.61319012,0,1,1,1,6.1961069,1
0,SrCoO3,ABC3,117.28063713577292,5.509182073849565,11.728063713577294,-6.651910965000001,0.0,3.10415682,0,1,1,2,0.0008775,0
1,SrCoO3,ABC3,235.46734734172708,5.4879828648204,11.773367367086356,-6.6941995435,0.0,2.77512122,0,1,1,1,12.794274,1
5,SrCoO3,ABC3,262.5970297133935,4.921002986387556,13.129851485669676,-6.6462547355,0.0,2.28862158,0,1,1,1,2.2862794,0
0,SrEuDyCoO6,ABCDE6,130.79505234722706,7.0716958977112245,13.079505234722706,-7.963147278000001,0.0,2.70882995,0,1,1,3,5.0000003,1
0,SrTiO3,ABC3,59.90045030664282,5.086511723754529,11.980090061328564,-8.437130902,1.7719999999999998,3.31488289,0,0,0,0,0.0,0
2,SrTiO3,ABC3,119.6250779514464,5.093987781835845,11.962507795144642,-8.438022916,1.8488,3.23055315,0,0,0,0,0.0,1
4,SrTiO3,ABC3,381.021066927438,4.797913331143005,12.7007022309146,-8.398920444666667,1.7362000000000002,3.14260689,1,0,0,0,3.26e-05,1
2,SrTiO3,ABC3,119.78460372892172,5.087203751701338,11.97846037289217,-8.437440668,1.7869999999999997,3.30314719,1,0,0,0,0.0,1
0,TaBeO3,ABC3,40.05848918973605,9.8640512476562,8.011697837947208,-8.196267866,0.0,7.9161517,0,1,0,0,0.001708,1
2,TiPbO3,ABC3,64.50656431866487,7.801556471692714,12.901312863732974,-8.020994206000001,1.813,4.88395,0,0,0,0,0.0,0
0,TiPbO3,ABC3,62.52581792285582,8.048700857425851,12.505163584571164,-7.979772459999999,1.585,5.5238723,0,0,0,0,0.0001673,0
2,TiPbO3,ABC3,294.1999112684277,6.8423080368338525,14.709995563421383,-8.017888695,2.316,3.17148907,1,0,0,0,0.0,0
0,TmScO3,ABC3,64.08062583322518,6.7863848723812135,12.816125166645037,-8.53251846,2.5716,3.26731565,1,0,0,0,0.0005899,1
1,TmScO3,ABC3,245.33436393081757,7.090336352390517,12.266718196540875,-9.1118436155,4.4531,2.43597436,1,0,0,0,0.0026546,1
0,ZrHgO3,ABC3,73.29755705300552,7.698366167909752,14.659511410601104,-6.932652041999999,0.0,1.2941384,0,1,0,0,0.0440064,1
5,Ba6Li2Ti7(Sb3O14)3,A2B6C7D9E42,892.894688639467,5.4689466274879,13.528707403628289,-7.503561049545454,0.0,5.68532717,0,1,0,0,0.3128932,1
0,BaCaNdMnO6,ABCDE6,148.7989954243633,5.273825601676685,14.87989954243633,-7.415677410000001,0.0,1.97132689,0,1,1,3,1.9999997,1
0,BaCaNdMnO6,ABCDE6,138.49058421719764,5.666377653097738,13.849058421719764,-7.415455628000001,0.0,2.30165585,0,1,1,1,2.9722153,1
0,BaNdEuFeO6,ABCDE6,147.95280351951135,6.569913084880119,14.795280351951137,-8.124763856,0.0,2.70893945,0,1,1,3,3.3066693,1
0,BaSrCoWO6,ABCDE6,135.18370152504897,6.924454782108329,13.518370152504897,-7.914747169,0.0,3.84934311,0,1,1,1,2.9998503,1
0,BaSrPrSbO6,ABCDE6,162.22919939071875,5.973702341280797,16.222919939071875,-7.174125291,3.4907,2.7937223,1,0,0,0,0.0,1
1,BaSrPrSbO6,ABCDE6,638.6369915102323,6.069857907433279,15.965924787755808,-7.20529461875,3.5434,2.74707966,1,0,0,0,0.0,1
6,BaSrPrSbO6,ABCDE6,318.4050045404135,6.087272086839589,15.920250227020674,-7.211240509,3.6275,2.62263727,0,0,0,0,0.0,1
0,Cs2NaErF6,ABC2D6,192.15313767208124,4.926229462696978,19.215313767208123,-5.524757869,6.8647,-2.12610186,1,0,0,0,0.0031686,0
0,DySbO3,ABC3,76.65860027562857,7.197205784014324,15.331720055125714,-6.611775036,0.0,6.89826612,0,1,0,0,8.36e-05,1
0,EuLuO3,ABC3,77.17786059059614,8.066880567105853,15.435572118119229,-9.165762474,0.0,1.80602274,0,1,1,3,6.0079449,1
1,GdMnO3,ABC3,228.9926389386748,7.546957429145372,11.44963194693374,-10.598357227,0.4040999999999997,3.7885341,0,0,1,1,44.0000015,0
1,HfCrAgS4,ABCD4,288.7333408312934,5.367106354627368,20.623810059378098,-6.801877181428572,0.7582999999999998,4.4050494,0,0,1,1,5.9999942,1
5,HfCrAgS4,ABCD4,540.5741148547545,5.733395313553996,19.306218387669805,-6.682599182142857,0.6166999999999998,5.06910993,1,0,1,1,11.9963373,1
6,HfCrAgS4,ABCD4,1095.5431841572397,5.658061026815742,19.563271145664995,-6.594333484285714,0.0,4.40643568,0,1,1,1,24.4398854,1
5,HfCrAgS4,ABCD4,284.76932980907657,5.441816888803984,20.34066641493404,-6.782542001428572,0.8528999999999995,4.5596231,0,0,1,1,6.0009676,1
1,HfCrAgS4,ABCD4,534.7448281783207,5.795895412948847,19.09802957779717,-6.702051317857142,0.7591000000000001,4.31378078,1,0,1,1,12.0030153,1
1,HfCrAgS4,ABCD4,1104.9476909509028,5.60990374860119,19.73120876698041,-6.57710976625,0.0,4.29442928,0,1,1,1,24.0083227,1
1,HfCrAgS4,ABCD4,534.6066465961949,5.797393497574426,19.093094521292677,-6.697026478571429,0.6033,4.5841141,0,0,1,1,12.0046814,1
5,HfCrAgS4,ABCD4,283.13153772664845,5.473295418840124,20.22368126618917,-6.784343532857143,0.9164,4.62673789,0,0,1,1,6.0012346,1
6,HfCrAgS4,ABCD4,648.13259297716,4.781930627034627,23.147592606327144,-6.580702127142857,0.0,3.2047079,0,1,1,1,12.0081186,1
6,HfCrAgS4,ABCD4,647.8611617762141,4.783934088963688,23.13789863486479,-6.575080838928572,0.0,3.05610167,0,1,1,1,12.0086149,1
1,HfCrAgS4,ABCD4,538.6773184892838,5.753583806774864,19.238475660331567,-6.690472076785714,0.9685999999999996,4.27168408,0,0,1,1,12.0071506,1
1,HfCrAgS4,ABCD4,538.172676753469,5.758978912555637,19.22045274119532,-6.704270010357143,0.7444000000000006,4.29400705,1,0,1,1,12.0049508,1
6,HfCrAgS4,ABCD4,644.7912466334287,4.806710874130168,23.02825880833674,-6.563184775000001,0.0,3.05842452,0,1,1,1,12.0007719,1
5,HfCrAgS4,ABCD4,288.2806621233196,5.375534165054457,20.591475865951395,-6.7867436535714285,0.0,3.99429969,0,1,1,1,6.0006601,1
5,HfCrAgS4,ABCD4,144.08742431312066,5.377507980851982,20.58391775901724,-6.785732025714286,0.3371999999999997,3.91489545,0,0,1,1,3.0001407,1
5,HfCrAgS4,ABCD4,272.8285015009972,5.679987757300937,19.487750107214087,-6.687690182857144,0.0,4.82416362,0,1,1,1,2.7692031,1
1,HfCrAgS4,ABCD4,287.9211888887875,5.382245587236018,20.565799206341968,-6.802162828571428,0.0,4.08605369,1,1,1,1,5.9999887,1
6,HfCrAgS4,ABCD4,579.9151272289173,5.34444602531193,20.711254543889904,-6.765328952142857,0.9302999999999996,4.43888739,0,0,1,1,11.9959858,1
0,K2TlHgCl6,ABC2D6,321.4830477861059,3.594432278410717,32.14830477861059,-3.113848935,0.0,0.63533079,0,1,0,0,0.0278802,1
0,K2YCuI6,ABC2D6,409.5375885221574,4.022536121256703,40.95375885221574,-3.50724675,1.8261,1.81686967,0,0,0,0,0.00089,1
0,KCaGdWO6,ABCDE6,148.87762348211973,5.758248700694466,14.887762348211972,-8.820455634,2.8078000000000003,1.60607226,1,0,1,1,6.9999999,1
0,KCdN3,ABC3,95.26040725410972,3.3735225210450044,19.052081450821944,-3.749421672,0.0,0.25654619,0,1,1,1,5.5322476,1
0,KSrPrWO6,ABCDE6,158.90158991809705,5.721041684581084,15.890158991809704,-7.859312374,2.8602,1.59866817,0,0,0,0,0.0,1
1,KSrPrWO6,ABCDE6,621.264185823343,5.853114603494243,15.531604645583576,-7.877564336000001,2.8314000000000004,1.57093844,1,0,0,0,0.0,1
1,LaPrMn2O6,ABC2D6,250.68810761295663,6.43428950156364,12.534405380647833,-8.743074947,0.0,5.62071762,0,1,1,1,16.0000001,1
0,LuBPd3,ABC3,78.73950385525583,10.650757092134665,15.747900771051167,-5.993338464,0.0,5.03894417,0,1,0,0,0.001127,0
0,NaCeNb2O6,ABC2D6,133.34540428825144,5.540488068009922,13.334540428825145,-8.68245694,0.0,6.04731461,0,1,1,1,1.0780128,1
5,NaCuF3,ABC3,229.3492405890192,4.15678372573588,11.46746202945096,-4.5331225835,0.0,1.1289185,0,1,1,1,3.9978767,1
0,NaLaZr2O6,ABC2D6,144.46438154667982,5.0614633570471055,14.446438154667982,-8.71358962,2.3563,3.05176974,0,0,0,0,0.0,1
1,NaLaZr2O6,ABC2D6,139.33929273125145,5.247630867534868,13.933929273125145,-8.849133365,3.7171,2.94791631,0,0,0,0,4e-07,1
0,NaLiZrWO6,ABCDE6,131.34026724136635,5.069743772695301,13.134026724136636,-8.089054749999999,2.2652,1.39252165,1,0,0,0,0.0,1
5,NaNdFeWO6,ABCDE6,252.4508640849,6.615996088777179,12.622543204245,-8.2706446525,2.4171,5.55442752,1,0,1,1,7.9999448,0
0,NaPrZrNbO6,ABCDE6,138.23017252168935,5.333998474931604,13.823017252168937,-8.585835176,0.0,5.35449377,0,1,0,0,5.88e-05,1
0,NaSrLaSeO6,ABCDE6,142.4007528221615,4.949775374912825,14.24007528221615,-6.492386443000001,2.2349,3.49134043,0,0,0,0,0.0,1
0,NaTbEuWO6,ABCDE6,145.28860577846586,7.014305010931507,14.528860577846586,-8.757456696,0.2999999999999998,4.23186774,0,0,1,1,7.0000001,1