Shape,formula_pretty,formula_anonymous,volume,density,density_atomic,energy_per_atom,band_gap,efermi,is_gap_direct,is_metal,is_magnetic,ordering,total_magnetization,theoretical
1,LaMnO3,ABC3,255.08175724819077,6.297394529869173,12.754087862409538,-8.798112388,0.0,6.67604071,0,1,1,1,16.0083734,0
2,LaMnO3,ABC3,245.45715843443807,6.544321106826596,12.272857921721904,-8.706018016,0.0,7.98691787,0,1,1,1,16.0022643,1
2,LaMnO3,ABC3,248.1817656076625,6.472475763201588,12.409088280383124,-8.7524285425,0.0,7.45069845,0,1,1,1,16.0021897,1
5,LaMnO3,ABC3,333.3011408804232,4.8195168444997165,16.66505704402116,-8.502294801,0.6482999999999999,3.80340075,0,0,1,1,16.0006786,1
1,LaMnO3,ABC3,245.6287779026172,6.53974862587572,12.281438895130858,-8.687858434499999,0.0,8.13507346,0,1,1,3,1.0212013,1
0,LaMnO3,ABC3,123.0117361342206,6.529256936148967,12.30117361342206,-8.698895915,0.6151000000000009,7.59199039,0,0,1,1,7.9999106,1
1,LaMnO3,ABC3,248.7146416467784,6.4586083558582486,12.43573208233892,-8.750783121,0.5803000000000003,7.52087773,0,0,1,1,16.0017743,1
0,LaMnO3,ABC3,61.36672420481146,6.544061474598911,12.273344840962292,-8.717243282,0.0,7.94682818,0,1,1,1,4.000871,0
1,LaMnO3,ABC3,248.6782388258177,6.459553800722036,12.433911941290884,-8.755401491499999,1.1014,6.65584772,0,0,1,1,16.0,1
3,LaMnO3,ABC3,124.66110534715936,6.44286948319112,12.466110534715934,-8.782970226,0.0,6.98437969,0,1,1,1,8.0000716,0
2,LaMnO3,ABC3,122.39876650609622,6.561955273806483,12.239876650609622,-8.708050088,0.0,8.17313636,0,1,1,1,7.9999577,1
2,LaMnO3,ABC3,123.72434334359438,6.491650791401589,12.372434334359438,-8.75642981,0.0,7.12904888,0,1,1,1,7.9998641,0
0,NaEuNbSbO6,ABCDE6,140.39807011886262,5.743563645741205,14.039807011886262,-8.071244935,0.0,5.14702666,0,1,1,1,6.8878377,1
0,NaTbEuSbO6,ABCDE6,147.56297006038196,6.20760296376381,14.756297006038196,-7.65380159,0.0,2.34076142,0,1,1,1,5.980166,1
0,Rb2HgAsI6,ABC2D6,433.1942828618611,4.630074950413837,43.31942828618611,-2.544391612,0.0,1.72856343,0,1,0,0,0.0053863,1
0,Rb2LiTbCl6,ABC2D6,289.6057380682421,3.1508330979134787,28.960573806824208,-4.421404044,5.0624,-0.8525,1,0,0,0,9.38e-05,1
0,Rb2PrCuI6,ABC2D6,434.0064985182752,4.34953739683276,43.40064985182752,-3.354121152,1.7961,1.85375,0,0,0,0,0.00201,1
0,RbLiO3,ABC3,73.00276697776181,3.1937324895524712,14.600553395552362,-4.24320535,0.0,-0.92629521,0,1,1,1,4.0000864,1
0,ScBIr3,ABC3,70.29674651362069,14.93887983976788,14.059349302724138,-8.564768664,0.0,8.16870511,0,1,0,0,3.94e-05,0
5,Sr3LaTi2Mn2O12,AB2C2D3E12,484.1119812525835,5.4837824378959805,12.102799531314588,-8.315994159,0.3762000000000007,4.68352968,0,0,1,2,4.88e-05,1
3,Sr3LaTi2Mn2O12,AB2C2D3E12,241.88625528604672,5.487630493159911,12.094312764302336,-8.311689863500002,0.0,4.68789774,0,1,1,1,7.0021657,1
5,Sr3LaTi2Mn2O12,AB2C2D3E12,484.0926695835505,5.484001199711938,12.102316739588762,-8.31719673375,1.4462000000000002,4.38201583,0,0,1,2,5.4e-06,1
1,TmCoO3,ABC3,215.82653245179552,8.48988507631344,10.791326622589777,-7.929291277999999,1.1885999999999997,2.81211714,0,0,0,0,3e-07,0
0,VOsO3,ABC3,59.87848531636664,8.01920057245928,11.975697063273326,-7.86462175,0.0,5.59172081,0,1,1,3,2.0979584,1
0,ZrBO3,ABC3,40.99870729715771,6.076679151888352,8.199741459431541,-8.09859658,0.0,9.22511927,0,1,0,0,0.0057902,1
4,Ba3Sr3(SbN)2,A2B2C3D3,627.2202355561172,5.010972458300204,31.361011777805864,-4.5432048205,0.6693000000000002,3.98303254,1,0,0,0,0.0057898,1
1,BaNd(CoO3)2,ABC2D6,119.69526877709508,6.873152552609467,11.969526877709509,-7.236151753,0.0,3.66785759,0,1,1,1,6.1230195,1
0,BaSrCaFeO6,ABCDE6,141.37200468619818,4.89646407921725,14.137200468619818,-6.730754526,0.0,1.96907967,0,1,1,1,4.0000003,1
1,BaSrDyBiO6,ABCDE6,638.5905395414177,7.2020908506994985,15.964763488535445,-7.00677207825,1.8030000000000004,2.35088971,1,0,0,0,0.0,1
0,BaSrDyBiO6,ABCDE6,162.02040000989632,7.096617280746096,16.202040000989633,-6.969960787,1.856,2.40049243,1,0,0,0,0.0,1
5,Ca3Ti4PbO12,AB3C4D12,235.93619860432088,5.003338167800653,11.796809930216044,-8.362856682,1.6864999999999997,5.78235174,0,0,0,0,3.8e-06,1
0,CaEuZrCrO6,ABCDE6,128.93661252529697,5.554059262358977,12.893661252529697,-9.106301145,0.0,3.28974618,0,1,1,1,9.0000005,1
5,CaLaMnNbO6,ABCDE6,529.6951272255312,5.302040544210323,13.24237818063828,-8.796581375250001,2.4089,4.53782155,1,0,1,2,0.0,1
0,Cs2ErAgCl6,ABC2D6,316.61464217120016,3.952676965788416,31.661464217120017,-4.2473766,3.5361,0.20987524,0,0,0,0,0.0002833,1
0,Cs2NaGaCl6,ABC2D6,291.91592421862885,3.249459984611391,29.19159242186289,-3.707123152,2.8347,-0.3743278,1,0,0,0,7.22e-05,1
0,Cs2NaSmF6,ABC2D6,200.5312577368281,4.580477920648433,20.05312577368281,-5.485754176,6.924799999999999,-2.25093098,1,0,0,0,0.0006092,1
0,Cs2NaTaCl6,ABC2D6,299.19565207055166,3.787696663352428,29.919565207055165,-4.557889418,0.0,3.11877463,0,1,1,1,1.9994144,1
1,CsSnI3,ABC3,910.5575123531858,4.612588502664029,45.52787561765929,-3.0762044355,2.0632,1.7185893,0,0,0,0,0.0,0
2,CsSnI3,ABC3,477.1049992694422,4.401575249605301,47.71049992694422,-3.06760978,0.5537000000000001,2.45894829,1,0,0,0,0.0,0
0,CsSnI3,ABC3,248.41075007279017,4.226897498662958,49.68215001455803,-3.079453774,0.4499999999999997,2.56463662,1,0,0,0,0.0044224,0
1,CsSnI3,ABC3,956.3187092803578,4.391869647363942,47.81593546401789,-3.068394613,0.6174999999999997,2.37856663,1,0,0,0,0.0,0
0,Er3GaC,ABC3,144.9630018561145,6.6840662839670815,28.9926003712229,-4.005390444,0.0,1.68095032,0,1,0,0,0.0013796,0
0,ErAlO3,ABC3,50.46677089518335,7.9705295534887615,10.09335417903667,-8.226557721999999,3.0097000000000005,5.51591206,0,0,0,0,1.28e-05,1
4,ErAlO3,ABC3,117.7313500695251,6.833301217588388,11.773135006952511,-8.326985139,3.5604,3.65016853,0,0,0,0,9.9e-06,1
1,ErAlO3,ABC3,199.38917785385337,8.069583178361684,9.969458892692668,-8.3947958515,5.803000000000001,4.36245766,1,0,0,0,0.0,1
0,K2LiCuF6,ABC2D6,132.84509466629146,3.283376565451131,13.284509466629146,-4.580088817,0.9248,-0.77199652,0,0,1,1,2.000356,1
0,K3AuO,ABC3,142.59546003697025,3.845922408760981,28.51909200739405,-3.202910128,0.5612,0.47419197,0,0,0,0,0.0,0
0,KLaHfNbO6,ABCDE6,138.09519243388618,6.558173837206143,13.809519243388618,-8.892459298,0.0,6.42910044,0,1,0,0,0.0004458,1
5,La4Sm4Co7CuO24,AB4C4D7E24,448.36955374549945,7.470436473419126,11.209238843637486,-7.733948324250001,0.0,6.15516161,0,1,1,3,2.9159764,1
0,Mg3SbN,ABC3,82.0474083873499,4.223462046461523,16.40948167746998,-4.177674120000001,1.6233999999999993,5.70989247,0,0,0,0,0.0,1
2,MgTi2Pb4WO12,ABC2D4E12,259.4762367030358,8.47734383029768,12.973811835151787,-7.634745380999999,1.9324000000000003,4.86402508,0,0,0,0,0.0007142,1
0,Mn3GeC,ABC3,54.58494386621112,7.589017683626261,10.916988773242224,-8.325291922,0.0,7.64043582,0,1,1,1,2.7659412,0
2,Mn3GeC,ABC3,112.3991386157726,7.370983610052205,11.23991386157726,-8.351132623,0.0,6.936877,0,1,1,1,10.2872317,0
0,Na2LiYF6,ABC2D6,146.2646575470186,2.904281938661954,14.62646575470186,-5.696339391,5.4375,-2.39833333,1,0,0,0,0.0015841,1
0,NaCaYSeO6,ABCDE6,127.99851776572146,4.241299653581744,12.799851776572146,-6.678246973,2.229,2.81103129,0,0,0,0,0.0,1
0,Rb2NaPbF6,ABC2D6,190.0863786878792,4.499901026564428,19.00863786878792,-4.610514556,0.0,0.25003028,0,1,1,1,0.8751046,1
0,Rb2NaPrBr6,ABC2D6,392.1375348964973,3.4480391965655377,39.21375348964973,-3.892945936,4.0373,-1.25701572,1,0,0,0,0.0007118,1
0,Rb2TlAuF6,ABC2D6,198.3249072225452,5.746065578858204,19.83249072225452,-4.0848625730000006,0.0,0.45561007,0,1,0,0,0.0050694,1
0,RbCaF3,ABC3,88.37611823763214,3.42984602336079,17.67522364752643,-5.462588439999999,6.3971,-2.27993741,0,0,0,0,0.0,0
5,RbLaMnWO6,ABCDE6,279.0776387091444,6.653966466480637,13.953881935457218,-8.429354974499999,1.6904000000000003,4.3994691,0,0,1,2,0.0,1
0,Sm3GaC,ABC3,125.16206999407768,7.068898461902689,25.03241399881553,-5.598501730000001,0.0,2.95143163,0,1,0,0,8e-07,0
5,Sr12Y4Fe8Co8O43,A4B8C8D12E43,960.9941182429014,5.206734463968741,12.813254909905352,-7.152917921733333,0.3718999999999997,3.23271674,0,0,1,1,63.9994099,1
6,Sr2La2MgTi3O12,AB2C2D3E12,247.3241500180617,5.458160080015352,12.366207500903084,-8.496644911,1.95,4.38807207,1,0,0,0,0.0025526,1
5,Sr2La2MgTi3O12,AB2C2D3E12,496.562614799342,5.437118148726574,12.41406536998355,-8.489707772500001,1.8857,4.5254788,0,0,0,0,0.0012065,1
6,Sr4Hf3TiO12,AB3C4D12,270.7962647975185,6.903533753905248,13.539813239875926,-8.926946246,2.5782,5.0098502,1,0,0,0,3.74e-05,1
1,TmTiO3,ABC3,229.4619594272196,7.665057270760334,11.473097971360978,-9.096499389,0.0,6.59611822,0,1,1,1,4.0007133,1
0,ZrOsO3,ABC3,60.52754994516142,9.038334595947893,12.105509989032283,-8.15535153,0.0,6.82742669,0,1,0,0,0.0002649,1
3,BaLa3Mn4O12,AB3C4D12,499.84787598197954,6.416869726666736,12.496196899549489,-8.499986641,0.0,6.06382577,0,1,1,1,29.999453,1
5,BaLa3Mn4O12,AB3C4D12,249.420912469614,6.429811100378733,12.471045623480702,-8.5015197955,0.0,6.05466321,0,1,1,1,15.0017148,1
6,BaLa3Mn4O12,AB3C4D12,249.9936150235625,6.415081247225299,12.499680751178127,-8.489736365999999,0.0,5.805041,0,1,1,1,15.0004131,1
5,BaLa3Mn4O12,AB3C4D12,246.5296054015964,6.505220129855171,12.326480270079818,-8.474878024999999,0.0,6.39074692,0,1,1,1,15.0011523,1
0,BaLa3Mn4O12,AB3C4D12,246.1725948734724,6.514654291587576,12.30862974367362,-8.4858103005,0.0,6.44353414,0,1,1,1,15.00619,1
0,BaNaSnBiO6,ABCDE6,148.46522219455906,6.531905098639452,14.846522219455906,-6.067608494,0.0,3.16391053,0,1,0,0,0.0,1
0,BaSrMgWO6,ABCDE6,134.64079636844278,6.525302743164759,13.46407963684428,-7.746261282000001,3.2391,5.90027008,0,0,0,0,4.71e-05,1
5,Ca5Nb4(CoO9)2,A2B4C5D18,724.0102643416938,4.48555292715619,12.482935592098167,-8.183225387413792,1.5737,2.09459017,0,0,0,0,0.0067655,1
1,CaNiO3,ABC3,219.31057008526892,4.445141964557334,10.965528504263448,-6.2955513885,0.0,2.93116246,0,1,1,3,0.0200601,1
4,CaNiO3,ABC3,111.93005701039908,4.354802652635339,11.193005701039906,-6.278679832,1.2293000000000005,3.6274048,0,0,0,0,2e-07,1
0,CaPrZrFeO6,ABCDE6,132.0368171214275,5.333007490707506,13.20368171214275,-8.378934154,1.9476000000000004,3.65363617,0,0,1,1,4.9999999,1
0,Cs2GaCuCl6,ABC2D6,261.55947173454365,3.884066263732703,26.155947173454365,-3.651551611,0.0,1.72699041,0,1,0,0,0.0023037,1
0,Cs2NaPrCl6,ABC2D6,343.9477157437578,3.101558632479139,34.39477157437578,-4.37362931,4.9676,-1.09534584,1,0,0,0,0.0003329,1
5,CsScBr3,ABC3,168.38626429989753,4.117894572995465,33.677252859979504,-4.35699825,0.0,4.06187642,0,1,1,1,0.9999759,1
1,CsScBr3,ABC3,675.3379230670437,4.106962516059928,33.766896153352185,-4.3707592045,0.0,3.52849487,0,1,1,1,4.0010735,1
4,CsScBr3,ABC3,337.3644970365881,4.110668964981975,33.736449703658806,-4.440707495,0.0,3.858981,0,1,1,2,1.28e-05,1
0,DyCuO3,ABC3,53.8174026175188,8.455649621541022,10.76348052350376,-6.945122254,0.0,5.04294882,0,1,0,0,0.0004047,1
0,Eu2MnWO6,ABC2D6,135.3510803148088,7.835847038595068,13.53510803148088,-9.91328831,0.3875999999999999,5.41727511,0,0,1,1,19.0000014,1
5,K3MoCl6,AB3C6,1109.3982917843289,2.550252461066767,27.734957294608225,-4.43673305575,1.6431,1.18276516,1,0,1,1,11.9999999,0
0,K3MoCl6,AB3C6,317.18739143915013,2.2299481318356724,31.718739143915013,-4.380172512,1.6364,0.84832379,1,0,1,1,2.9981812,1
0,KPrZnWO6,ABCDE6,129.4716964252802,6.736610475809654,12.94716964252802,-7.429336053,3.106,2.48207956,0,0,0,0,0.0,1
0,KReO3,ABC3,61.11912479420659,7.425354016710841,12.223824958841318,-7.766516009999999,0.0,4.06293031,0,1,0,0,0.0003283,1
5,La2MnCoO6,ABC2D6,244.2815689689828,6.630130447023922,12.21407844844914,-8.8097652035,0.0,5.90855497,0,1,0,0,0.0800585,0
5,La2MnCoO6,ABC2D6,121.19850458791316,6.681677606398237,12.119850458791316,-8.337960441,0.0,6.86912712,0,1,1,1,3.9936568,1
6,La3ZnCuRh2PbO12,ABCD2E3F12,255.06498107865843,7.491193542495406,12.753249053932922,-7.1489578285,0.0,6.055071,0,1,1,3,0.0740778,1
0,LaMgO3,ABC3,61.43297867320221,5.708989785524037,12.28659573464044,-7.22541901,0.0,5.74470063,0,1,1,1,1.0015996,1
5,LiCaPrTeO6,ABCDE6,253.52320938427025,5.390828737069335,12.676160469213512,-6.878232543999999,3.1095,3.13916281,0,0,0,0,0.000549,1
2,Mn6Zn2CN,ABC2D6,114.46859422928658,7.0568869475112175,11.446859422928656,-7.650988440000001,0.0,5.38335759,0,1,1,1,13.0111182,1
0,Na3PdF6,AB3C6,150.19607091800003,3.199326979028028,15.019607091800005,-4.398363691999999,0.0,0.07211204,0,1,1,1,1.0000811,1
3,NaLa2Mn3O9,AB2C3D9,346.501447537612,5.842863311475055,11.550048251253733,-8.132414215,0.0,5.44615869,0,1,1,2,0.0007668,1
0,NaPrHfZrO6,ABCDE6,141.1137569710816,6.232095954127952,14.111375697108162,-8.870471041,2.7095,2.17798709,1,0,0,0,0.0,1
0,NdNpO3,ABC3,90.83334720707876,7.847009308489407,18.16666944141575,-8.986175597999999,0.0,4.70103282,0,1,1,1,3.978307,1
0,Pd3PbC,ABC3,79.44849350684825,11.254481917802194,15.88969870136965,-5.501883096,0.0,6.2418628,0,1,0,0,6.13e-05,0
0,Sc3BPb,ABC3,102.36724082715106,5.724184047217281,20.473448165430213,-6.398252382,0.0,5.18934514,0,1,0,0,1.7e-06,0
3,SnHgO3,ABC3,132.32972520759614,9.218080204353802,13.232972520759612,-5.286142636,0.0,3.99338641,0,1,0,0,1.25e-05,0
0,SnHgO3,ABC3,67.99169860966235,8.970404073787693,13.59833972193247,-5.012297874,0.0,3.70116966,0,1,0,0,0.0034075,1
5,Sr2ErRuO6,ABC2D6,278.56300678556045,6.432795481529091,13.928150339278025,-7.5689551145,0.0,3.35086358,0,1,1,1,5.9993859,0
5,Sr2FeSbO6,ABC2D6,258.08658305849883,5.775725886831556,12.90432915292494,-7.0909342075,1.6733000000000002,3.71913991,0,0,1,2,5e-07,1
0,Sr2FeSbO6,ABC2D6,516.6736594806578,5.77013103518074,12.916841487016445,-7.08028200225,1.6652000000000005,3.91625874,0,0,1,2,0.0,1
5,Sr2SmTaO6,ABC2D6,297.93977721304066,6.716446697084901,14.896988860652034,-8.511200202000001,3.7716,1.64426421,0,0,0,0,0.0013362,1
0,Sr2TbSeO6,ABC2D6,142.3414340203298,5.939356740005953,14.23414340203298,-6.771293503999999,0.0,4.39030564,0,1,1,1,0.3293521,1
0,SrCaHfTiO6,ABCDE6,129.78740565186078,5.7580928436357,12.978740565186078,-8.738613621999999,2.4601000000000006,3.00640154,1,0,0,0,0.0,1
0,SrNdMnCoO6,ABCDE6,116.39713278566153,6.301781723832221,11.639713278566152,-7.671427362,0.0,3.77363646,0,1,1,1,7.005922,1
0,SrSmZrTiO6,ABCDE6,133.08215655338796,5.902721440494199,13.308215655338795,-8.717014213,0.0,6.36003325,0,1,0,0,0.0032334,1
1,TiCdO3,ABC3,229.44471704617425,6.029352450479733,11.47223585230871,-7.3717698475,2.5503,3.39436787,1,0,0,0,1.69e-05,0
0,TiCdO3,ABC3,68.68324431916595,5.035445983533509,13.73664886383319,-5.403051798,0.0,2.65886094,0,1,1,1,1.0540207,0
0,TiCdO3,ABC3,58.72678792988992,5.889148358597162,11.745357585977985,-7.213101972,0.0,2.90302118,0,1,0,0,4.4e-05,1
1,TiCdO3,ABC3,227.38653800449333,6.083926863535969,11.369326900224667,-7.368795385999999,2.2387,2.6295438,1,0,0,0,0.0004519,0
6,TiCdO3,ABC3,277.93610284000755,2.4887070316451982,27.79361028400076,-6.296802834999999,0.0,-0.53744189,0,1,0,0,0.2896073,1
1,TiCdO3,ABC3,220.5468578264304,6.2726038385036205,11.02734289132152,-7.372593440999999,2.4156,2.62952641,1,0,0,0,0.0,0
3,TiCdO3,ABC3,119.04414777961352,5.810462306526291,11.904414777961351,-7.411338015,2.9057000000000004,1.77877982,0,0,0,0,0.0,0
6,TiCdO3,ABC3,195.3942757687807,3.5400296695718607,19.53942757687807,-7.245404959,2.7764,-1.14169088,0,0,0,0,0.0005567,1
1,TiCdO3,ABC3,256.34652840922064,5.396613231147699,12.817326420461033,-7.1912718715,1.4505,3.80655782,0,0,0,0,0.0019335,1
4,Ba3ZrRu2O9,AB2C3D9,433.7974753807173,6.502396471406985,14.459915846023913,-7.837933839000001,0.0,3.9511269,0,1,1,1,4.0134249,0
0,BaEuZrNbO6,ABCDE6,145.10777086011146,6.516125658205965,14.510777086011146,-9.403754979,0.0,5.50399564,0,1,1,1,6.6693043,1
1,BaSr3Co2(CuO6)2,AB2C2D3E12,482.5727278473163,5.761206916266659,12.064318196182906,-6.260071906249999,0.0,2.74859514,0,1,1,1,16.3247953,1
0,Ca6Sn2NF,ABC2D6,238.46296574733603,3.5576088474005854,23.846296574733604,-4.345057944000001,0.1322999999999998,4.76640113,1,0,0,0,0.0001134,1
1,CaCrO3,ABC3,220.31739524847347,4.222917142537827,11.015869762423671,-7.9187860535,0.4069000000000002,3.2528849,0,0,1,1,8.0012736,0
1,CeTmO3,ABC3,293.9370669190826,8.068296247041621,14.69685334595413,-8.914985163999999,0.0947999999999993,6.86309704,0,0,1,1,3.9999339,1
0,Cs2KScF6,ABC2D6,203.05252760889863,3.7933545875859753,20.305252760889864,-5.651617617,6.8201,-2.0305513,1,0,0,0,0.0004887,1
0,Cs2NaAsCl6,ABC2D6,305.55940510303,3.1326202925685056,30.555940510303,-3.7133424639999992,3.062,0.09147642,0,0,0,0,0.0006057,1
0,CsNpO3,ABC3,84.66489357279501,8.196376452751363,16.932978714559002,-8.721830296,0.0,5.89890898,0,1,1,1,2.000006,1
5,H6PbCBr3N,ABCD3E6,224.23948050073244,3.5469226255268325,18.68662337506104,-4.565541845833334,2.0713000000000004,0.06058896,0,0,0,0,0.0002232,1
6,H6PbCBr3N,ABCD3E6,900.5397493541019,3.5328150145283,18.761244778210457,-4.555887378541667,1.9688,0.13422617,1,0,0,0,0.0046072,1
1,H6PbCBr3N,ABCD3E6,855.1776609234446,3.72020983834203,17.81620126923843,-4.567407528125,2.1129,0.29157051,1,0,0,0,0.005467,0
1,H6PbCBr3N,ABCD3E6,877.0041857212022,3.627622763375381,18.27092053585838,-4.553226267916666,2.1632,2.27405294,1,0,0,0,0.0025721,1
6,In10(Sn2S7)3,A6B10C21,1713.5664553529405,4.91078963001736,23.156303450715413,-4.514543942702702,0.6701999999999995,5.8558723,1,0,0,0,0.0215404,1
0,KCaTbFeO6,ABCDE6,135.4890635181664,4.779099149853804,13.54890635181664,-6.796498325,0.0,1.52867425,0,1,1,3,1.9986197,1
0,KCaYWO6,ABCDE6,145.5327863065307,5.110781355915319,14.553278630653072,-8.092747528,2.8433,1.79946237,1,0,0,0,0.0,1
0,KTcO3,ABC3,58.14690296217846,5.285921582802932,11.629380592435693,-7.249670994000001,0.0,3.60505537,0,1,0,0,2.1e-06,1
1,La5Sm3V2Cr6O24,A2B3C5D6E24,481.32745569728826,6.70474714284322,12.033186392432206,-8.912102270750001,0.9265000000000008,7.31270231,1,0,1,1,21.9996197,1
0,NaEuNbSnO6,ABCDE6,133.8419740121829,5.987065068547585,13.384197401218293,-8.223520051,0.4400999999999992,5.72336228,1,0,1,1,6.9998772,1
0,NiAgF3,ABC3,64.1899796712093,5.783220649807447,12.83799593424186,-4.702922782,0.0,1.9805905,0,1,1,1,2.0044072,1
0,NiAgF3,ABC3,82.154028290048,4.518644108778625,16.4308056580096,-3.769799054,0.0,0.85324877,0,1,1,1,1.0858214,1
1,NiAgF3,ABC3,127.18444673047424,5.837581960504137,12.718444673047424,-4.7291842840000005,0.7610000000000001,1.56463398,0,0,1,1,4.0,1
0,Rb2LiYI6,ABC2D6,434.13932974513386,3.9327965574498953,43.413932974513386,-3.572412901,2.9884,0.81375,1,0,0,0,0.0009157,1
5,Sr2CoTeO6,ABC2D6,261.03340450061205,5.824115097095763,13.051670225030602,-6.6669557265,1.5099999999999998,4.01083871,1,0,1,2,0.0002493,0
0,Sr2EuWO6,ABC2D6,159.71603496121847,6.311290531656712,15.971603496121848,-8.516258752999999,0.0,4.53163985,0,1,1,1,6.9999999,1
0,Sr2EuWO6,ABC2D6,635.3420466709355,6.346277911158455,15.883551166773389,-8.577083532500001,0.0,4.4923586,0,1,1,1,27.8838142,1
5,Sr2EuWO6,ABC2D6,301.1630126175221,6.694144081263204,15.058150630876105,-8.622637958,0.0083999999999999,4.6969137,1,0,1,1,13.9999998,1
0,Sr2YVO6,ABC2D6,138.5881763378415,4.9255329318669885,13.85881763378415,-8.008350258,1.6134,2.48928502,0,0,0,0,0.0,1
0,Sr3BiAs,ABC3,203.297472,4.465966311338832,40.65949439999999,-3.600384582,0.0,2.31538417,0,1,0,0,6.41e-05,1
0,Sr3BiAs,ABC3,237.9597424366504,3.815433870601266,47.59194848733008,-3.031049652,0.0,1.63319345,0,1,0,0,0.0020256,1
6,SrCa7Ti2Mn6O22,AB2C6D7E22,459.1827457713366,4.142517423904415,12.083756467666753,-7.897214976052632,0.0,3.85647561,0,1,1,1,22.0050289,1
6,SrCa7Ti2Mn6O22,AB2C6D7E22,1875.7821043340607,4.056276090317733,12.340671739039871,-7.918560856578948,0.0731999999999999,3.41692774,0,0,1,1,88.0003902,1
0,SrEuMgWO6,ABCDE6,128.76527977267594,7.011806830200377,12.876527977267594,-8.577858455000001,0.3566000000000002,5.66703312,0,0,1,1,7.0,1
0,SrHoO3,ABC3,82.61883275427296,6.040663396361041,16.523766550854592,-7.280823688,0.0,1.28000902,0,1,1,1,0.9999566,1
5,TlCr5Se8,AB5C8,303.9935620714282,5.987046357833963,21.71382586224487,-6.417951109285714,0.0,4.20675455,0,1,1,1,15.000674,0
5,BaBiO3,ABC3,167.31160052336446,7.826831503984305,16.731160052336445,-6.36393313,0.0,3.69947593,0,1,0,0,0.0,0
3,BaBiO3,ABC3,167.38710722210985,7.823300896291097,16.738710722210985,-6.362595421,0.0,3.7553163,0,1,0,0,1e-07,0