Shape,formula_pretty,formula_anonymous,volume,density,density_atomic,energy_per_atom,band_gap,efermi,is_gap_direct,is_metal,is_magnetic,ordering,total_magnetization,theoretical
0,SrLaVFeO6,ABCDE6,243.7462207888288,5.849389727531232,12.18731103944144,-8.2365489015,1.2001,5.37681514,0,0,1,2,0.0002932,1
5,SrLaVFeO6,ABCDE6,243.34165299278337,5.859114633568376,12.167082649639168,-8.231978426000001,0.8815,6.36121088,0,0,1,3,10.0005605,1
6,SrLaVFeO6,ABCDE6,244.4580668112831,5.832356684336373,12.222903340564155,-8.22590763,0.0,6.05285899,0,1,1,3,0.7099134,1
2,SrLaVFeO6,ABCDE6,364.8140864473656,5.862300934804119,12.16046954824552,-8.22738367,0.0,5.64262598,1,1,1,1,18.0003204,1
2,SrLaVFeO6,ABCDE6,244.145800843573,5.839816351870166,12.20729004217865,-8.2324501325,0.0,6.05775118,0,1,1,1,12.034752,1
4,Ba3TiFe2O9,AB2C3D9,407.7128467307327,5.82846405382256,13.590428224357757,-7.620279072333333,0.2463000000000001,2.80830639,0,0,1,1,16.0062676,1
2,CaGeO3,ABC3,969.4508785919636,4.40456402078852,12.118135982399547,-7.030077613624999,2.5121,1.96150949,0,0,0,0,3e-06,0
0,CaGeO3,ABC3,54.1490255087543,4.928537978810958,10.82980510175086,-6.873712094,0.5017000000000005,4.9808505,0,0,0,0,4.84e-05,1
5,CaGeO3,ABC3,438.5384044777961,3.651340808611136,14.617946815926537,-7.0144126663333335,3.2925,0.74951933,0,0,0,0,0.0008179,1
6,CaGeO3,ABC3,418.57112569596745,3.825522292658277,13.952370856532248,-7.023572567666667,3.3911,1.011549,1,0,0,0,0.0006995,1
6,CaGeO3,ABC3,436.38233200714,3.669381308468726,14.546077733571332,-7.044484095333334,3.4813,0.99769346,0,0,0,0,0.0,0
1,CaGeO3,ABC3,216.4272088717933,4.932384058856298,10.821360443589665,-6.9371081895,2.0287,4.23435723,0,0,0,0,1.15e-05,0
2,Cs3TlF6,AB3C6,243.2137523196741,4.895924150199655,24.32137523196741,-4.296758081,3.3184,-1.39562748,0,0,0,0,0.0,0
0,Cs3TlF6,AB3C6,239.9269891316462,4.962993483776895,23.99269891316462,-4.331256203,3.6388,-1.5925,0,0,0,0,0.0,1
0,CsTlBr3,ABC3,400.0094090948631,4.790548763118224,40.00094090948631,-3.08005807,0.9985,-0.00520165,0,0,0,0,0.0,1
0,CsTlF3,ABC3,218.42703685232237,5.994898166816377,21.842703685232237,-4.31539502,2.1858,0.17906462,0,0,0,0,0.0,0
1,CsTlF3,ABC3,206.639093783082,6.336883398180716,20.6639093783082,-3.437686363,0.0,1.628075,0,1,0,0,0.0005672,1
0,CsTlF3,ABC3,109.88079513850572,5.958492751888762,21.976159027701147,-4.252012616,0.0,1.4917577,0,1,0,0,0.0,1
1,CsTlF3,ABC3,110.35200315619932,5.933049719793685,22.070400631239867,-4.251130984,0.0,1.88967576,0,1,0,0,0.0037335,1
3,CsTlF3,ABC3,109.35558349863894,5.987110126962187,21.871116699727786,-4.250573076,0.0,2.36550185,0,1,0,0,0.003745,1
1,ErMnO3,ABC3,219.0584913519672,8.192693324289694,10.95292456759836,-8.762813469,0.2488999999999999,3.82493451,1,0,1,1,15.9989688,0
4,ErMnO3,ABC3,364.2792410031499,7.389986188010839,12.142641366771665,-8.797218649666666,0.2410999999999998,2.87046321,0,0,1,1,23.999999,0
0,K2AsAuF6,ABC2D6,184.56801566177643,4.1752357638065005,18.45680156617764,-4.399293434,0.7657,1.03289367,0,0,0,0,0.0005832,1
0,K2TlAuF6,ABC2D6,194.49024987134945,5.067560923883028,19.44902498713494,-4.084838068,0.0,0.39645847,0,1,0,0,0.0023234,1
0,K3RhF6,AB3C6,171.59917278242028,3.2339136720914805,17.159917278242027,-4.82142962,2.1828,-0.21039827,1,0,0,0,0.0,1
6,K3RhF6,AB3C6,271.99022709289704,2.0402825385013594,27.199022709289704,-4.797474355,2.0825,0.05229011,1,0,0,0,0.0003881,1
5,K3RhF6,AB3C6,266.20064660699194,2.0846565102448604,26.620064660699192,-4.798214919,2.0571,0.0080451,1,0,0,0,0.000355,1
0,KEuZr2O6,ABC2D6,147.1961514654343,5.296566585598033,14.719615146543427,-9.06275834,0.0,1.44111747,0,1,1,1,6.0089124,1
0,KSrTbWO6,ABCDE6,148.48795768694018,6.323756680576316,14.848795768694018,-7.94955919,2.8873999999999995,1.680325,1,0,0,0,0.0,1
0,NaLaHf2O6,ABC2D6,138.540966935042,7.369793935735628,13.8540966935042,-9.18057724,2.5748,3.45998174,0,0,0,0,0.0,1
0,PuPbO3,ABC3,82.77001583757489,10.0149565599103,16.554003167514978,-9.128231406,0.0,7.69360771,0,1,1,1,3.9732305,1
0,Rb2SmAuCl6,ABC2D6,323.0662679620578,3.757189307293841,32.30662679620578,-4.129889244999999,2.2894,0.41629133,0,0,0,0,0.0007374,1
0,SmEu2NbO6,ABC2D6,155.72941873936983,6.858327900487531,15.572941873936983,-9.771567194,0.3650000000000002,4.26104301,1,0,1,1,14.0000001,1
0,Sr2HfCrO6,ABC2D6,256.6038839521195,6.493508975863162,12.830194197605971,-8.463602687999998,0.0,2.79059221,0,1,1,2,0.0092995,1
0,Sr2TbSnO6,ABC2D6,155.16092538241185,5.874049675727328,15.516092538241184,-7.019939805,0.0,2.35153019,0,1,0,0,1.0000001,1
0,Sr2TbSnO6,ABC2D6,608.8713565464493,5.987622663662472,15.221783913661232,-7.065601354,0.0,2.24751643,0,1,0,0,4.0,1
0,Sr2ZrFeO6,ABC2D6,133.19404479077755,5.215041404897968,13.319404479077756,-7.898865144,0.0,2.48340959,0,1,1,1,4.0000001,1
1,Sr3SiO,ABC3,515.312261967182,3.956389438884266,25.765613098359104,-4.5339772285,0.4234,3.46920082,1,0,0,0,0.0,0
1,ZnSiO3,ABC3,271.8030829899101,3.4577114196668006,13.590154149495504,-6.9622586685000005,3.5718,0.48081788,0,0,0,0,0.0,1
5,ZnSiO3,ABC3,234.7613099162203,4.003285823759669,11.738065495811016,-6.95038914,3.4379,1.62226989,0,0,0,0,0.004091,0
5,ZnSiO3,ABC3,457.4908908673707,4.108569777960076,11.437272271684268,-6.941780636,3.2839,1.95943106,0,0,0,0,0.0018434,0
0,ZnSiO3,ABC3,44.4463555048899,5.286241207400336,8.88927110097798,-6.420110908000001,0.0,5.80933633,0,1,0,0,1.03e-05,1
1,ZnSiO3,ABC3,917.856103283554,4.09570354478328,11.473201291044424,-6.945300627875,3.2638,1.8716224,1,0,0,0,7.38e-05,0
3,ZnSiO3,ABC3,93.45862085830956,5.027982519556377,9.345862085830955,-6.850865412,3.5938,3.97222735,0,0,0,0,0.0006621,1
1,BaLa2TiCr2O9,ABC2D2E9,560.7280697427207,6.316588863697972,12.46062377206046,-8.635829844444444,0.0,6.02524287,0,1,1,1,18.003072,1
0,Ca2InSbO6,ABC2D6,135.43654463525752,5.0603399179975055,13.543654463525751,-6.4768515,1.4198000000000004,4.45299859,1,0,0,0,0.0,1
0,CaLa2ZrO6,ABC2D6,151.2749720507644,5.544564184041466,15.12749720507644,-8.384701653,2.2496,4.90863016,0,0,0,0,3.57e-05,1
5,CaYMn2O6,ABC2D6,225.44230967106668,4.932898665560955,11.272115483553334,-8.4108984585,0.4279999999999995,4.12899059,0,0,1,1,13.9998427,1
1,CaYMn2O6,ABC2D6,225.3360402572234,4.935225041089429,11.26680201286117,-8.421602715499999,0.0,3.85963321,0,1,1,1,14.0002702,1
5,CaYMn2O6,ABC2D6,225.5259127729439,4.93107002589549,11.276295638647197,-8.418048878,0.0,3.71392488,0,1,1,1,13.9999423,1
0,Cs2KTlF6,ABC2D6,218.91581433735257,4.727779243902458,21.891581433735254,-4.405097678,3.8205,-1.84270097,0,0,0,0,0.0010088,1
0,Cs2LiYCl6,ABC2D6,300.09099584151784,3.1782805592621783,30.009099584151784,-4.614343772,4.8986,-0.37641062,1,0,0,0,0.0001648,0
0,DyInO3,ABC3,70.02291696360375,7.714620905876316,14.00458339272075,-6.7450798480000005,1.5367000000000006,5.06598229,0,0,0,0,0.0003027,1
4,DyInO3,ABC3,420.1945036650193,7.713574371670154,14.006483455500645,-7.439521238,1.9871,3.20213823,0,0,0,0,0.0,1
1,DyInO3,ABC3,265.3557805952959,8.143033596418817,13.267789029764796,-7.379810134,2.623,3.89144267,1,0,0,0,0.0003398,1
0,Eu2NbZnO6,ABC2D6,130.13046939182132,7.123458230439994,13.013046939182132,-9.025488622,0.0,2.94183858,0,1,1,1,12.9992803,1
1,EuHfS3,ABC3,450.9171333105742,6.2846787570421165,22.54585666552871,-8.6395778415,0.1287000000000002,4.62230329,1,0,1,1,27.9999917,0
0,K2AsAuCl6,ABC2D6,280.3103767742339,3.334004240120802,28.031037677423388,-3.520584685,0.2199999999999999,1.48078487,0,0,0,0,0.000258,1
3,K2LiAlH6,ABC2D6,240.3310202708004,1.6329190632027053,12.01655101354002,-3.1997315800000004,2.5761,0.14027695,0,0,0,0,0.0,0
0,K2LiAlH6,ABC2D6,233.7073930052689,1.6791985030199632,11.685369650263445,-3.190512205,2.8783,0.21453366,0,0,0,0,0.0,1
0,K3NdF6,AB3C6,223.3521520129625,2.791904078322818,22.33521520129625,-5.414438073,5.614,-3.31892425,0,0,0,0,0.0009229,1
1,K5Na3Nb6(WO12)2,A2B3C5D6E24,524.6816093302248,4.980097627809177,13.11704023325562,-8.032679936749998,0.0,3.45451892,0,1,1,1,1.7612772,1
0,KAuBr3,ABC3,158.63720916259328,4.980206611863565,31.727441832518657,-2.96675448,0.0,0.90532675,0,1,0,0,0.0024907,1
0,KBeO3,ABC3,53.64977433795312,2.9747044245727032,10.729954867590624,-5.136239456,0.0,0.71970714,0,1,1,1,2.9999698,1
5,La2FeCoO6,ABC2D6,244.31530193603427,6.6415436267317975,12.215765096801714,-8.216140477,0.0,6.87202929,0,1,1,1,13.9983729,1
6,Na3Ca7Ta3Ti7O30,A3B3C7D7E30,1170.1630168663835,4.845856312708149,11.701630168663836,-8.545335680200001,2.3925,2.75825795,0,0,0,0,0.0001239,1
0,NpHgO3,ABC3,77.6902836757368,10.378880578496316,15.53805673514736,-7.999735087999999,0.0,4.87179801,0,1,1,1,1.201394,1
1,PrScS3,ABC3,451.3261716177129,4.151048981637532,22.566308580885643,-7.007649549,1.8377,3.79412689,1,0,0,0,0.0,1
0,Rb2LiTaCl6,ABC2D6,264.12160047780856,3.5933017766988344,26.41216004778085,-4.600360735,0.0,3.07322259,0,1,1,1,1.9995717,1
0,Rb2RuAuF6,ABC2D6,180.2515062722275,5.370452497691549,18.02515062722275,-4.656829003,0.0,1.32032442,0,1,1,1,1.0035151,1
5,RbV5Se8,AB5C8,305.0397107248785,5.290470833772147,21.788550766062748,-6.363346055714286,0.0,4.21110943,0,1,1,1,9.9797212,0
0,Sr2CeSiO6,ABC2D6,131.80757898028435,5.536129302578364,13.180757898028435,-7.827369054,1.763,4.26421076,1,0,0,0,0.0,1
5,Sr2YTaO6,ABC2D6,280.75842475056976,6.400529567117464,14.037921237528488,-8.731829380499999,3.8491,1.95304725,0,0,0,0,0.0,0
2,Sr2YTaO6,ABC2D6,140.72483798820878,6.384809620402316,14.072483798820878,-8.714557884,3.8258,2.00923295,0,0,0,0,4e-07,0
5,Sr3Ca5Mn4(FeO6)4,A3B4C4D5E24,461.1631767943171,4.646307894456153,11.529079419857927,-7.425480793,0.0,2.96996021,0,1,1,1,31.3115902,1
5,Sr3LaCr2(MoO6)2,AB2C2D3E12,256.26904136234634,5.764512726232777,12.813452068117318,-8.293979469499998,0.0,5.15510023,1,1,1,1,8.9999992,1
3,Sr4Nd3Ta2Al5O21,A2B3C4D5E21,404.8391470423143,6.628375554868666,11.566832772637552,-8.320423961714285,3.194,4.40213279,0,0,0,0,0.0015475,1
0,SrCaTbNiO6,ABCDE6,131.19775044226975,5.585596732481808,13.119775044226976,-6.780848771,0.0,2.44498909,0,1,1,1,1.0,1
0,SrCaZrCrO6,ABCDE6,128.9247319237325,4.725826086746743,12.89247319237325,-8.197683498,0.0,2.97607809,0,1,1,1,2.0000004,1
1,YbCoO3,ABC3,191.9333763645697,9.688850323665111,9.596668818228483,-6.878148291,0.0,2.4887042,0,1,1,1,3.9891982,0
0,YbNb(PbO3)2,ABC2D6,151.55801915493325,8.505967037910358,15.155801915493324,-7.165005925,0.0,2.96233396,0,1,0,0,0.9991661,1
0,YbTcO3,ABC3,59.45933150596865,8.909878086748487,11.89186630119373,-7.85670274,0.0,5.91961539,0,1,0,0,0.0352302,1
5,BaLa2(CoO3)3,AB2C3D9,361.1486130451828,6.76754111624162,12.038287101506093,-7.530595083666666,0.0,5.28061006,0,1,1,1,11.9996857,1
3,BaLa2(CoO3)3,AB2C3D9,176.96151419413286,6.905705172639008,11.797434279608858,-7.524006462,0.0,5.66596438,0,1,1,1,6.9268223,1
6,BaLa2(CoO3)3,AB2C3D9,362.7351992222243,6.737940219470057,12.091173307407477,-7.526423824333333,0.0,5.81933386,0,1,1,3,12.0115122,1
5,BaLa2(CoO3)3,AB2C3D9,360.37839898667335,6.7820049557057125,12.012613299555778,-7.530054019,0.0,5.61518566,0,1,1,3,9.9751741,1
6,BaSrYWO6,ABCDE6,300.6760561796557,6.55751712039489,15.033802808982784,-8.4044548055,2.0381,3.40643107,0,0,1,1,2.0,1
0,BaSrYWO6,ABCDE6,151.84884751177407,6.492273133446163,15.184884751177409,-8.318615233,0.0,5.03190213,0,1,1,1,1.0,1
1,BaSrYWO6,ABCDE6,601.7571639046515,6.553103159743429,15.043929097616289,-8.401223651,1.8616999999999997,3.61349188,0,0,1,1,4.0000001,1
0,BaVInWO6,ABCDE6,134.97137141806527,7.171641201359293,13.497137141806528,-7.925023646000001,0.0,4.73265616,0,1,1,1,2.0421198,1
0,BeCuO3,ABC3,41.487602710206495,4.825262704072896,8.2975205420413,-5.358760686,0.0,3.62812757,0,1,0,0,0.0003157,1
5,CaLaMnSnO6,ABCDE6,257.5517022556002,5.784968009922019,12.877585112780013,-7.7812904955,0.4520999999999997,5.85438158,0,0,1,1,8.0002765,1
1,CdFeO3,ABC3,224.18182162147863,6.407273253808278,11.209091081073932,-6.170801069,0.0,2.15476787,0,1,1,1,15.9991066,1
5,CdFeO3,ABC3,227.1522346587413,6.323486941800345,11.357611732937066,-6.1633916635,0.0,2.05973834,0,1,1,1,15.9991184,1
5,CdFeO3,ABC3,225.9259816774008,6.357808778789962,11.296299083870036,-6.156007203,0.0,2.0263916,0,1,1,3,2.0922816,1
0,CeTaO3,ABC3,66.66087960201669,9.193428072048937,13.33217592040334,-9.5829654,0.0,9.08809532,0,1,1,1,1.6259545,1
0,Cs2LiLuCl6,ABC2D6,292.88153282799675,3.744453496930802,29.28815328279968,-4.420866306,5.3872,-0.51336849,1,0,0,0,5.63e-05,0
0,Cs2MnHgF6,ABC2D6,184.5414275298298,5.716815188024685,18.454142752982985,-4.891631334,0.3873999999999999,1.05501024,0,0,1,1,5.0000357,1
0,KCaCeMnO6,ABCDE6,139.50424715400527,4.406862056995126,13.950424715400526,-7.335981784,0.0,2.29765551,0,1,1,3,2.0000003,1
1,KNa(BiO3)2,ABC2D6,295.33050532342565,6.477797968902763,14.766525266171282,-5.483387469,0.3114999999999999,1.99934512,1,0,0,0,0.0,1
2,KNa(BiO3)2,ABC2D6,154.42612952215944,6.194195740898219,15.442612952215944,-5.416408558,0.0,1.89460894,0,1,0,0,0.2185566,1
1,KNa(BiO3)2,ABC2D6,148.3769607889618,6.446726423585816,14.83769607889618,-5.457300012,0.0,2.17732203,0,1,0,0,7.2e-06,1
5,La3Cd(FeO3)4,AB3C4D12,244.5884775730722,6.412319634510753,12.22942387865361,-7.912403534000001,0.0,5.26210157,0,1,1,1,18.9958436,1
0,La3TlC,ABC3,143.94147790506207,7.303694422045193,28.788295581012413,-5.571156512,0.0,7.37765274,0,1,0,0,4.7e-06,0
5,Na3LaTi2Nb2O12,AB2C2D3E12,483.3737453838609,4.681740120684967,12.084343634596523,-8.3426322625,1.4699,2.9731083,1,0,0,0,0.0036387,1
5,Na3LaTi2Nb2O12,AB2C2D3E12,246.42601861244512,4.591703160631864,12.321300930622256,-8.340639059,1.8512,4.7152552,0,0,0,0,0.0001611,1
0,NaCaTbFeO6,ABCDE6,132.21322269884652,4.695194709246631,13.221322269884652,-6.798340388,0.0,1.62659461,0,1,1,3,1.9969609,1
0,NbRu3C,ABC3,67.17781588639421,10.088314892872884,13.435563177278842,-9.460155762,0.0,8.07374744,0,1,0,0,0.0110109,0
0,PmInO3,ABC3,71.27102965144373,7.17178954663811,14.254205930288744,-6.906561624,1.6185,5.16966079,0,0,0,0,5.91e-05,1
0,Rb2TmAgCl6,ABC2D6,305.92513074705835,3.584906554416193,30.592513074705835,-4.219980602,3.4694,-0.00782134,0,0,0,0,0.0009076,1
5,RbAuBr3,ABC3,341.6486760124486,5.075649373663879,34.164867601244865,-3.018250017,0.7293,-0.58916032,0,0,0,0,0.0,0
0,RbAuBr3,ABC3,160.72210162556107,5.394680852468055,32.144420325112215,-2.971952624,0.0,0.94319402,0,1,0,0,0.0006282,1
0,SmEu2TaO6,ABC2D6,153.96005496687033,7.886719499809699,15.396005496687032,-10.073612978,0.7560000000000002,4.45708046,1,0,1,1,13.9925071,1
5,Sr2MgUO6,ABC2D6,284.0184060809738,6.239133278427522,14.20092030404869,-8.0783564965,2.1157,3.13903116,1,0,0,0,0.0,0
5,Sr3Ca(FeO3)4,AB3C4D12,235.0860927827378,5.07381415566359,11.75430463913689,-7.2280789775,0.0,2.71997366,0,1,1,1,15.999275,1
6,Sr3Ca(FeO3)4,AB3C4D12,240.40994907855847,4.961455006052744,12.020497453927923,-7.182986991,0.0,2.37354366,0,1,1,3,1.9989912,1
2,Sr3Ca(FeO3)4,AB3C4D12,236.28271303892208,5.048118544178964,11.814135651946104,-7.2261809555,0.0,2.8985954,0,1,1,1,16.8349491,1
0,SrCeCrSnO6,ABCDE6,129.32034861793798,6.3488418803042,12.9320348617938,-7.8257346829999985,0.1276999999999999,6.86840267,0,0,1,1,4.0000002,1
1,SrCeEuNiO6,ABCDE6,678.1500822063559,5.234092941818971,16.953752055158898,-7.650265561999999,0.0,1.79927533,0,1,1,3,3.8451611,1
0,SrCeEuNiO6,ABCDE6,135.0408097260683,6.571162758077432,13.504080972606827,-7.995019199,0.0,4.46992263,0,1,1,1,7.0000003,1
0,SrEuZnWO6,ABCDE6,130.77142440452923,7.426179460981714,13.077142440452922,-8.225855042000001,0.4957000000000002,5.28054914,0,0,1,1,7.0000002,1
5,SrPrMgRuO6,ABCDE6,252.08779425889003,5.927101316012095,12.6043897129445,-7.475848598000001,0.3557000000000001,4.18074273,0,0,1,1,6.0000968,1
0,TiCuO3,ABC3,57.10100527942184,4.635794483096115,11.420201055884366,-7.303850848000001,0.0,2.96240917,0,1,1,1,0.9993563,1
2,TiCuO3,ABC3,60.86474174556893,4.349127551713586,12.172948349113785,-7.596420849999999,0.0,2.52880214,0,1,0,0,6.78e-05,1
5,Ca2SbWO6,ABC2D6,273.2181471827018,5.855897120137985,13.66090735913509,-7.579862618,0.4763000000000001,5.78014926,1,0,1,1,1.999212,1
5,Ca2SbWO6,ABC2D6,273.5879669879671,5.847981469619925,13.679398349398356,-7.607936977,1.4767,4.87476548,0,0,1,1,1.9996501,1
0,Ca2SbWO6,ABC2D6,147.52936194547834,5.422437066622371,14.752936194547834,-7.284518966999999,0.0,6.06240946,0,1,1,1,1.0,1
0,CaEuDyVO6,ABCDE6,136.76099969043204,6.0889213076066735,13.676099969043204,-8.658294858000001,9.999999999976694e-05,4.04279603,0,0,1,1,7.0134281,1
5,CaLaTiMnO6,ABCDE6,482.7698458919486,5.1977281967197735,12.069246147298715,-8.62990008875,0.2435999999999998,5.47786091,0,0,1,2,0.0,1
1,CaLuMn2O6,ABC2D6,221.7571476658542,6.303742118954373,11.087857383292713,-8.251612633499999,0.0,3.78214835,0,1,1,1,14.0001778,1
1,CaLuMn2O6,ABC2D6,221.20667447990357,6.31942899194675,11.060333723995177,-8.248537561000001,0.0,3.73098122,0,1,1,1,14.0000228,1
0,Cs3TlCl6,AB3C6,406.68104033224097,3.331104610643143,40.6681040332241,-3.447210653,2.5485,-1.29972873,1,0,0,0,0.0012583,1
1,DyScS3,ABC3,425.3828748237168,4.741368135176336,21.26914374118584,-6.955855601500001,1.7736999999999994,3.9167618,0,0,0,0,0.0,1
0,HoBRh3,ABC3,72.29709375236472,11.12715732371411,14.459418750472944,-7.476134166,0.0,5.72779266,0,1,1,3,0.6651276,0
5,K(VS2)2,AB2C4,155.84063505864856,2.86886470158387,22.262947865521223,-6.408890022857143,0.0,3.41559046,0,1,1,1,3.0003432,1
5,K2Sb9PbSe15,AB2C9D15,1611.3692773065193,5.287850358075783,29.84017180197258,-4.195309872777778,0.0,4.44170825,0,1,0,0,0.0177677,1
0,K3CO,ABC3,143.1428310364701,1.6856214686073818,28.62856620729402,-3.312135066,0.2972,0.1386257,0,0,1,1,3.0,0
2,KCrCl3,ABC3,123.17031129372424,2.6619976931868194,24.63406225874485,-4.992647327999999,0.0,2.39356947,0,1,1,1,4.0042189,1
0,KLaTiNbO6,ABCDE6,128.44965863876246,5.362004779664894,12.844965863876244,-8.614321463,0.0,6.53994532,0,1,0,0,4.2e-05,1
0,KTl2CrF6,ABC2D6,180.1651631955385,5.657721196428806,18.01651631955385,-5.3787718490000005,3.5979,0.21137568,1,0,1,1,2.9999782,1
5,LiPr2IrO6,ABC2D6,251.10409768342407,7.630944583806581,12.555204884171204,-7.7019789215,0.0,3.90785985,0,1,1,1,4.0059474,0
0,Lu3PbC,ABC3,107.28667267494647,11.51705535232506,21.457334534989297,-5.868060386,0.0,5.0204297,0,1,0,0,6.98e-05,1
0,NaCaEuSeO6,ABCDE6,127.84868110785736,5.065289567241802,12.784868110785734,-6.862564002000001,0.0,2.66190079,0,1,1,1,5.9973486,1
0,Rb2YInF6,ABC2D6,223.79505491701985,3.625737834093092,22.379505491701984,-5.560720916999999,3.673,0.34410013,0,0,0,0,0.0001106,1
0,SmEuFeSnO6,ABCDE6,129.44353326648897,7.349011248292109,12.944353326648898,-8.255084292,0.0,6.9123589,0,1,1,1,11.8601202,1
2,Sr2FeCoO6,ABC2D6,237.5149591291,5.39749005810509,11.875747956455,-6.9563739595000005,0.0,2.63474452,0,1,1,1,14.4824004,1
2,Sr2FeCoO6,ABC2D6,117.57049228405089,5.451982915293375,11.757049228405087,-6.941502428,0.0,2.93638759,0,1,1,1,6.6481653,1
0,Sr2FeCoO6,ABC2D6,116.5350901467221,5.500423215601784,11.65350901467221,-6.958838957,0.0,2.8766267,0,1,1,1,7.1284189,1
5,Sr2FeCoO6,ABC2D6,236.9201454968168,5.411041040272274,11.846007274840838,-6.9525939375000005,0.0,2.92974743,0,1,1,1,14.435234,1
2,Sr2FeCoO6,ABC2D6,115.37620604705091,5.555671634876584,11.537620604705094,-6.940617861,0.0,2.88957282,0,1,1,1,6.265516,1
0,SrEuSnSbO6,ABCDE6,145.1924846312278,6.588179794292343,14.51924846312278,-7.426189436,0.0,6.84167092,0,1,1,1,6.8116817,1
0,SrEuZrGeO6,ABCDE6,128.98320626558922,6.429883097237399,12.898320626558922,-8.61592714,0.7382999999999997,6.12197514,1,0,1,1,7.0,1
0,SrPrDyNiO6,ABCDE6,129.28332883716118,7.0092961961995695,12.928332883716118,-7.344654613,1.4826,3.3105566,0,0,0,0,5e-07,1
2,SrWNO2,ABCD2,67.6437830910932,7.793234514068968,13.52875661821864,-8.453424854000001,0.0,4.56195978,0,1,1,1,1.0007804,1
0,TmGeO3,ABC3,58.73100332958047,8.187265194775403,11.746200665916094,-7.0961929580000005,0.0,7.65402208,0,1,0,0,0.0005432,1
5,ZrCrCuS4,ABCD4,538.58867414859,4.1317164959703945,19.235309791021077,-6.659673799642857,0.5248999999999997,4.94410335,0,0,1,1,12.0060325,1
5,ZrCrCuS4,ABCD4,256.3837931828169,4.339774526886309,18.31312808448692,-6.735001901428572,0.2759999999999998,5.1757326,0,0,1,1,6.0016604,1
5,ZrCrCuS4,ABCD4,258.7866800888392,4.299478838630003,18.48476286348852,-6.7432319792857145,0.1796999999999995,5.14194094,0,0,1,1,6.0030802,1