Shape,formula_pretty,formula_anonymous,volume,density,density_atomic,energy_per_atom,band_gap,efermi,is_gap_direct,is_metal,is_magnetic,ordering,total_magnetization,theoretical
0,Ca2LaSbO6,ABC2D6,589.11928508109,4.925000124714356,14.72798212702725,-7.259593058750001,3.5891,3.93821275,0,0,0,0,0.0,1
5,CaLaVCrO6,ABCDE6,235.82132345374785,5.322222042475438,11.791066172687392,-8.59737059,1.2525000000000004,5.27018455,0,0,1,3,3.9962311,1
0,CdHCl3,ABC3,142.10646763194086,2.568143881333393,28.421293526388173,-2.26190631,0.0,-2.28430211,0,1,1,1,1.7276392,1
0,Cs2HgSbI6,ABC2D6,474.6934163194293,4.721032696323798,47.469341631942925,-2.582277059,0.0,1.89787821,0,1,0,0,0.0060169,1
0,Cs2LiTaI6,ABC2D6,407.98621128134,4.945670075804265,40.798621128134,-3.6245670090000006,0.0,3.28300037,0,1,1,1,1.9986259,1
0,Cs2ScAgBr6,ABC2D6,347.85861207538045,4.286977605502238,34.78586120753805,-3.915614625,2.8546,-0.13211048,0,0,0,0,0.000254,1
0,Cs2YAgCl6,ABC2D6,320.9343708272286,3.4940693129404647,32.09343708272286,-4.433800978,3.8705,-0.00897092,0,0,0,0,0.000376,1
5,CsCr5S8,AB5C8,280.3065099397967,3.8470885083764834,20.02189356712833,-6.922838652857143,0.4013999999999997,4.42704315,0,0,1,1,15.0036219,1
5,CsCr5S8,AB5C8,271.4903412028461,3.972015904635084,19.39216722877472,-6.963087757857143,0.3078000000000003,4.83028695,0,0,1,1,15.0000005,0
5,CsV5S8,AB5C8,259.54348288197235,4.121112650710377,18.538820205855167,-6.935676102857143,0.0,5.50837068,0,1,1,3,5.386225,0
0,Eu2NiWO6,ABC2D6,127.02171604689435,8.398770767260256,12.702171604689436,-9.41655339,0.4429999999999996,5.88550001,1,0,1,1,16.0000006,1
0,K2LiNdCl6,ABC2D6,295.69633421973543,2.482683249987694,29.569633421973545,-4.403628403,4.8605,-1.02583333,1,0,0,0,1.48e-05,1
0,K2LiPdF6,ABC2D6,141.46152306530266,3.5866602565110823,14.146152306530263,-4.603924451999999,0.0,0.01700786,0,1,1,1,1.0000481,1
2,K2LiPdF6,ABC2D6,142.27261192685958,3.5662128903958066,14.227261192685958,-4.612594424999999,0.3787,-0.17400852,0,0,1,1,0.9999035,1
1,KSrTbBiO6,ABCDE6,646.9324153325588,6.063992513058499,16.173310383313968,-6.484090871499999,0.0,1.3821873,0,1,0,0,4.0000007,1
0,KSrTbBiO6,ABCDE6,163.96663787630817,5.981389528141212,16.396663787630818,-6.460831064999999,0.0,1.43501779,0,1,0,0,1.0000001,1
0,KTbEuGeO6,ABCDE6,139.1540278252601,6.188793162241346,13.91540278252601,-7.594974326000001,0.0,1.55257916,0,1,1,3,5.0,1
5,La2CuSnO6,ABC2D6,536.9079749350874,6.879129703265918,13.422699373377185,-7.5404249325,0.0,7.23019579,0,1,1,1,1.4752587,0
0,La2MnNiO6,ABC2D6,117.52420760031438,6.887186577094375,11.752420760031438,-8.224152001,1.2796999999999992,7.15575869,0,0,1,1,4.9934596,1
3,La2MnNiO6,ABC2D6,119.90011867273616,6.750711792686394,11.990011867273616,-8.273782222,1.5804999999999998,6.76040717,0,0,1,1,5.0000052,1
5,La2MnNiO6,ABC2D6,240.36567156689625,6.734831473996657,12.01828357834481,-8.278698570500001,0.0,7.20461011,0,1,1,1,9.9998687,0
6,La4Nb(CoO4)3,AB3C4D12,259.4075597491354,6.512148974821233,12.970377987456768,-8.2773840975,0.0,6.35934313,0,1,1,3,0.0348796,1
5,LiNd2IrO6,ABC2D6,247.86480682820056,7.820023958783751,12.393240341410028,-7.714457378,0.0,3.81008634,0,1,1,1,4.0504608,0
0,MnInF3,ABC3,79.85800960507555,4.714984990559191,15.971601921015113,-6.035298127999999,2.9035,2.0973305,0,0,1,1,5.0002367,1
3,MnInF3,ABC3,79.9998764939565,4.706623724504216,15.999975298791302,-6.035342326,2.9574,2.05479928,0,0,1,1,5.0000452,1
6,MnInF3,ABC3,80.12432855464112,4.699313223037958,16.024865710928225,-6.035291062000001,2.4765,2.38264988,0,0,1,1,4.9999838,1
0,Na3AuF6,AB3C6,160.54486626553765,3.929633327294261,16.054486626553764,-4.035033760999999,0.5640999999999999,-0.61864084,0,0,1,1,2.0000521,1
0,Na3BrO,ABC3,93.15250142153528,2.93902544973586,18.630500284307058,-3.737887096,1.8815,0.9397745,1,0,0,0,0.0681367,1
0,NaEuZrSbO6,ABCDE6,135.63135208403165,5.924821815933715,13.563135208403164,-8.199500028,0.0907,6.11340056,0,0,1,1,7.0000002,1
0,NaSrMnBiO6,ABCDE6,131.47321279562277,5.942841794118302,13.147321279562275,-6.446402316,0.0,2.693666,0,1,1,1,3.2690287,1
0,Rb2DyAgCl6,ABC2D6,311.8578602143625,3.4824478964921566,31.18578602143625,-4.229240426,3.7248,-0.23381698,0,0,0,0,0.0056276,1
0,Rb3AsCl6,AB3C6,351.5687257889571,2.569638847661801,35.156872578895715,-3.655544531,3.4887,-0.71482235,1,0,0,0,0.0013139,1
1,ScCrO3,ABC3,207.8888721409463,4.631233740587391,10.394443607047316,-9.296693205,2.4178,4.44164694,0,0,1,2,5e-07,0
0,Sr2InSbO6,ABC2D6,139.8385786418042,6.030136018058424,13.983857864180418,-6.523831518,1.0652,4.15449363,1,0,0,0,0.0,1
5,Sr3Ca(SnO3)4,AB3C4D12,271.6107150213629,5.928861454973444,13.580535751068146,-6.762485096500001,1.8809,5.78695371,0,0,0,0,0.0002067,1
6,Sr4Tb2Mg(RuO6)2,AB2C2D4E12,299.9357724814256,6.016693292935034,14.28265583244884,-7.263341806666666,0.1105999999999998,3.8747134,0,0,1,1,4.0112972,1
6,Sr4Tb2Mg(RuO6)2,AB2C2D4E12,301.8058713964497,5.979411673637541,14.3717081617357,-7.251902556190476,0.0,3.89336447,0,1,1,1,3.9984167,1
6,Sr4Tb2Mg(RuO6)2,AB2C2D4E12,298.04398003360654,6.054883411491143,14.192570477790788,-7.278440078571428,0.0,3.86754617,0,1,1,1,3.9923514,1
5,SrCa3Mn4O12,AB3C4D12,222.36472100444476,4.626940403441725,11.118236050222237,-7.6657812695,0.0,3.3835451,0,1,1,1,12.0016088,1
2,SrCa3Mn4O12,AB3C4D12,224.71037524214765,4.578641777473802,11.235518762107382,-7.609191067499999,0.0,3.21443173,0,1,1,1,13.1546245,1
6,SrCa3Mn4O12,AB3C4D12,894.0984833157394,4.602930576953815,11.176231041446744,-7.665759711125,0.2846999999999999,2.65943106,1,0,1,1,47.9994652,1
2,SrCa3Mn4O12,AB3C4D12,222.8750306762199,4.61634624925837,11.143751533810995,-7.61135948,0.0,3.22880739,0,1,1,1,12.4701709,1
0,SrCaTiNbO6,ABCDE6,127.50079853357148,4.746738798248539,12.750079853357146,-8.473100374000001,0.0,5.83452743,0,1,0,0,2.1e-05,1
1,SrCeScO4,ABCD4,208.6872512198364,5.35812403222978,14.906232229988316,-8.419942916428571,0.0615999999999994,6.58378196,0,0,1,1,2.0000809,1
2,SrLaVO4,ABCD4,196.38055309865493,5.77465792205933,14.027182364189638,-8.290084474285715,0.0,6.87504807,0,1,1,2,0.041215,1
1,SrLaVO4,ABCD4,391.92376248581394,5.78699545797807,13.997277231636213,-8.286449546428571,0.0,7.16965559,0,1,1,2,0.0052443,1
1,SrLaVO4,ABCD4,394.86012709079193,5.743960652825237,14.102147396099712,-8.304479339642857,1.7713,5.3756798,0,0,1,2,0.0013078,1
0,TiFe3N,ABC3,52.23070739036822,7.293451067411127,10.446141478073644,-8.668377977999999,0.0,7.0598259,0,1,1,3,1.6523892,1
0,YbMgO3,ABC3,58.70979239693698,6.939250705746186,11.741958479387396,-5.951151506,0.0,1.72144792,0,1,1,1,1.9988442,1
0,YbNbO3,ABC3,63.82780586260885,8.16755695722142,12.76556117252177,-8.468985888,0.0,4.73723963,0,1,0,0,0.0007016,1
0,ZnBO3,ABC3,38.57356425344683,5.34742323855386,7.7147128506893665,-5.595359675999999,0.0,4.80470613,0,1,0,0,0.0177717,1
2,Ca8Mn8O23,A8B8C23,445.216939868669,4.207562944556542,11.415818970991516,-7.668527845384615,0.0,3.4886135,0,1,1,1,25.9999968,1
6,Ca8Mn8O23,A8B8C23,1785.236810068934,4.197265680193847,11.44382570557009,-7.70894694224359,0.0,3.26504867,0,1,1,1,104.0000062,1
0,Cs2AgAuF6,ABC2D6,187.95101451977123,6.048730197467282,18.795101451977125,-3.971140751,0.0,0.32014381,0,1,0,0,0.0026923,1
0,Cs2NaUCl6,ABC2D6,340.1955329443626,3.609828861317796,34.01955329443626,-4.795468267,0.5004,3.67135496,0,0,1,1,2.9999956,0
0,Cs3TbF6,AB3C6,245.71258742611863,4.538926529823639,24.571258742611867,-5.4205427880000006,5.745,-2.26121713,0,0,0,0,0.0,0
1,CsCaI3,ABC3,925.5257116270684,3.973677915970216,46.27628558135343,-3.327886959,3.9817,0.4716719,0,0,0,0,0.0,1
5,CsCaI3,ABC3,242.2223781078566,3.795831241609599,48.44447562157132,-3.317324766,3.7149,0.77406259,0,0,0,0,0.0027961,1
1,CsCaI3,ABC3,901.9107359491212,4.077721812552602,45.095536797456056,-3.3381274475,3.6642,0.79415912,1,0,0,0,0.0,1
0,DySnO3,ABC3,70.88038130870991,7.712473706428706,14.176076261741985,-6.844083535999999,0.0,7.65350515,0,1,0,0,0.0004956,1
1,EuZrO3,ABC3,274.21787904044083,7.053166080151789,13.710893952022042,-10.3761299985,0.1865999999999994,5.23632035,1,0,1,2,0.0,0
0,EuZrO3,ABC3,585.7820910571171,6.603493935872536,14.644552276427929,-10.29173704925,0.4662999999999995,5.46093385,1,0,1,1,55.9982686,1
0,EuZrO3,ABC3,73.94695196343135,6.538823412138973,14.789390392686268,-10.282810812,0.3877000000000006,4.69543176,1,0,1,1,7.0004074,1
0,K2NaTlCl6,ABC2D6,305.05777921776735,2.8212259486821014,30.505777921776733,-3.465850725,1.9894,-0.94729992,1,0,0,0,0.0002531,1
0,KCuCl3,ABC3,110.45741002736315,3.1420087127911525,22.09148200547263,-3.600206768,0.0,1.56235367,0,1,1,1,0.5088569,1
5,KCuCl3,ABC3,483.2891413171882,2.872467970229371,24.164457065859413,-3.614130334,0.2681999999999999,0.52616397,0,0,1,1,3.9999999,0
5,KCuCl3,ABC3,672.1848188118263,2.065254287127698,33.60924094059131,-3.592185965,0.0684,-0.59084106,0,0,1,1,4.0041687,0
0,KLaZnWO6,ABCDE6,130.26423404916517,6.670101695167441,13.026423404916518,-7.503913102,2.774,3.57671846,0,0,0,0,0.0,1
0,KNdZrNbO6,ABCDE6,139.87227029700605,5.502199905591299,13.987227029700604,-8.577885668,0.0,5.20583384,0,1,0,0,7.95e-05,1
0,Mn3ZnC,ABC3,96.87428019628112,4.15217274858554,19.374856039256223,-5.596448316,0.0,1.86995435,0,1,1,3,11.1781433,1
0,Mn3ZnC,ABC3,58.20974039931948,6.910162174070456,11.641948079863896,-7.62638847,0.0,5.18388028,0,1,1,1,6.9852646,0
0,NaSrNdMnO6,ABCDE6,147.34631566548026,4.57306216620603,14.734631566548028,-6.950418284,0.0,1.12991629,0,1,1,3,1.0000001,1
0,NaSrZrWO6,ABCDE6,136.53436766955403,5.858101128362502,13.653436766955403,-8.280714195,0.0,4.63333868,0,1,1,1,1.0,1
0,Rb2CuSbF6,ABC2D6,179.08132358470854,4.360246074898207,17.908132358470855,-4.646086218,0.9861999999999996,3.02677083,0,0,0,0,0.0003515,1
0,Rb2GaCuF6,ABC2D6,153.28991705947251,4.530168586168107,15.328991705947251,-4.705998973,0.3578000000000001,2.10007952,0,0,0,0,0.0001468,1
0,RbMnO3,ABC3,65.90328141912995,4.747142635255059,13.180656283825993,-6.375374634,0.0,0.63483049,0,1,1,3,1.9943766,1
0,Sr2MnWO6,ABC2D6,135.63916790223718,6.243763682354826,13.563916790223718,-8.251399284,1.6795,4.06696227,0,0,1,1,5.0,1
1,Sr2SnO4,AB2C4,417.7614872160485,5.69115145157762,14.920053114858876,-6.666330385357142,2.6819999999999995,2.9037187,0,0,0,0,0.0,0
1,Sr2SnO4,AB2C4,209.1020179068712,5.685129005884915,14.935858421919368,-6.666933591428571,2.7108,2.89871975,0,0,0,0,0.0,0
2,Sr2SnO4,AB2C4,418.3856102043846,5.682661727350975,14.942343221585164,-6.669028192857143,2.6531,2.94036817,0,0,0,0,0.0,0
2,Sr2SnO4,AB2C4,104.36676146805182,5.695165445731112,14.909537352578832,-6.655518675714285,2.578,3.18353639,0,0,0,0,0.0,0
5,Sr2TbRuO6,ABC2D6,283.86612732371435,6.215120364025134,14.193306366185718,-7.546700513999999,0.1878999999999999,3.05258049,0,0,1,1,5.9994161,0
6,Sr4LiY2(RuO6)2,AB2C2D4E12,288.1685693925147,5.355364476957176,13.722312828214989,-7.47270127952381,0.0,3.6862818,0,1,1,1,4.9942063,1
6,Sr4LiY2(RuO6)2,AB2C2D4E12,288.8090551876429,5.343487997277559,13.75281215179252,-7.479683903333334,0.0,3.71626245,0,1,1,3,0.1815287,1
6,Sr4LiY2(RuO6)2,AB2C2D4E12,290.7474545588339,5.307863218413696,13.845116883753995,-7.463739447142857,0.0,3.77941411,0,1,1,3,0.3179074,1
5,Ca3YTi4O12,AB3C4D12,230.87941277225937,4.262123324041073,11.543970638612969,-8.767144318,0.0,5.98325008,0,1,0,0,0.0243715,1
2,Ca4Mn3AlO11,AB3C4D11,221.1692970827341,3.964982822630044,11.6404893201439,-7.527844560526316,0.0,4.01455439,0,1,1,1,9.9998368,1
6,Ca4Mn3AlO11,AB3C4D11,1773.6258040808889,3.955433944673071,11.668590816321636,-7.632054972960527,0.0741,3.46844649,1,0,1,1,79.9999983,1
5,CaNd3Mn4O12,AB3C4D12,239.8034816595688,6.12513266048559,11.99017408297844,-8.475166384,0.0,3.98957421,0,1,1,1,15.0053479,1
0,CdNi3C,ABC3,57.78832993499817,8.634877406888368,11.557665986999634,-5.478348936,0.0,6.3006412,0,1,0,0,0.0009654,1
0,Cs2CeAgF6,ABC2D6,219.9407941240146,4.739740940462439,21.994079412401454,-5.355045033,0.0,3.96758901,0,1,1,1,0.9988319,1
0,Cs2KAgF6,ABC2D6,208.1176689227674,4.2029999357908565,20.81176689227674,-4.123233789,0.6370999999999999,-1.26382864,0,0,1,1,2.0000031,0
0,Cs2KSbBr6,ABC2D6,429.367142900443,3.504234517636405,42.9367142900443,-3.351851568,2.8501000000000003,-0.45916667,1,0,0,0,0.0006751,1
0,Cs2NaPbF6,ABC2D6,201.88635487088527,5.017248638010956,20.18863548708853,-4.605035153,0.0,0.56812341,0,1,1,1,0.9522732,1
1,CsPdBr3,ABC3,151.6396774825951,5.245727348211815,30.327935496519014,-3.4354150599999995,0.3719999999999999,1.16278832,0,0,0,0,0.0002148,1
0,CsPdBr3,ABC3,147.1719038789495,5.404974606421774,29.4343807757899,-3.435474112,0.0,0.81569554,0,1,0,0,6e-07,1
0,CuHgO3,ABC3,56.257612521104434,9.213171513943983,11.251522504220889,-4.198000504,0.0,2.73503311,0,1,0,0,0.6891766,1
0,K2LiFeF6,ABC2D6,135.86201789558817,3.1163430800500467,13.586201789558816,-5.387897413999999,3.9473,1.8864566,1,0,1,1,5.0000869,1
0,K2NaInCl6,ABC2D6,292.3945497535749,2.434758936220724,29.239454975357496,-3.691198559,3.2151,-0.67986459,1,0,0,0,0.0001553,1
0,K2NaTaCl6,ABC2D6,281.1123413790933,2.9231071396335158,28.11123413790933,-4.540832856,0.0,2.78885841,0,1,1,1,2.001524,1
0,KHfSnBiO6,ABCDE6,138.8514535404488,7.669076043756477,13.88514535404488,-7.254020687000001,1.0033,3.74628937,0,0,0,0,0.0,1
0,KLaTbGeO6,ABCDE6,138.83843733329655,6.046677799106933,13.883843733329655,-7.261626298,0.0,3.15787988,0,1,1,1,1.0,1
0,KNdDySbO6,ABCDE6,145.36500803032828,6.438099174194545,14.536500803032828,-7.248438492,3.1776,2.98431717,1,0,0,0,0.0,1
0,KNdHfTiO6,ABCDE6,129.85725573210897,6.466516944696738,12.985725573210896,-8.780455746,2.2033,2.71389245,1,0,0,0,0.0,1
0,KRb2AuF6,ABC2D6,204.04116730540605,4.2399567431597,20.404116730540604,-4.108037619999999,0.7444000000000001,-0.87246975,0,0,1,1,2.0010751,1
0,KSrPrSeO6,ABCDE6,143.32245339186073,5.127774922700079,14.332245339186072,-6.4467106450000005,1.9789000000000003,2.50622022,0,0,0,0,0.0,1
0,KSrSmSeO6,ABCDE6,138.52326161976427,5.418738124064742,13.852326161976428,-6.482936927,1.9386000000000003,2.41265763,0,0,0,0,0.0,1
1,LaGaO3,ABC3,121.6841724938779,7.0040105024818375,12.16841724938779,-7.654491901999999,3.3965999999999994,5.77569557,0,0,0,0,5.16e-05,1
3,LaGaO3,ABC3,121.62970279595108,7.007147123944987,12.16297027959511,-7.654005623000001,3.3802000000000003,5.83353106,0,0,0,0,0.0002577,0
1,LaGaO3,ABC3,244.776697806021,6.9637120671375285,12.23883489030105,-7.659527258,3.3483,5.6420584,0,0,0,0,0.0006026,0
1,LaGaO3,ABC3,243.58010127039395,6.997921568205891,12.179005063519696,-7.6545308995,3.2035,5.92277139,0,0,0,0,0.0002528,1
3,LaGaO3,ABC3,121.69108631106909,7.003612573186545,12.169108631106909,-7.653481302999999,3.3682000000000007,5.84488996,0,0,0,0,0.0003385,0
0,LaGaO3,ABC3,97.3300964793554,4.378282016363295,19.46601929587108,-6.24826148,0.0,1.36931874,0,1,1,1,2.0005082,0
0,LaGaO3,ABC3,59.93511816444752,7.10999868052724,11.987023632889503,-7.595752593999999,3.365900000000001,6.42677206,0,0,0,0,6.7e-06,0
6,LiSm4V4O12,AB4C4D12,251.2348247493642,6.636871969844739,11.963563083303058,-8.607711573333333,0.9364999999999996,4.93625576,0,0,1,1,8.9925624,1
6,Mg(AgO2)2,AB2C4,195.26166934591723,5.171200665867437,13.947262096136944,-4.876808508571428,0.3746,1.17870277,0,0,0,0,0.0005491,1
3,Mg(AgO2)2,AB2C4,181.84565403880032,5.55271601005404,12.988975288485737,-4.883894827857143,0.0,1.99789473,0,1,1,1,1.9095476,1
5,Mg(AgO2)2,AB2C4,389.15517704912287,5.189381172809303,13.898399180325816,-4.558564376071429,0.0,1.63235235,0,1,1,1,3.2805618,1
1,Mg(AgO2)2,AB2C4,162.54747587038827,6.211952964099773,11.610533990742018,-4.873631542142857,0.0,2.67595946,0,1,0,0,0.0107414,1
1,Mg(AgO2)2,AB2C4,174.77037349131243,5.777508249075104,12.48359810652232,-4.907835078571429,0.0,2.01046618,0,1,0,0,0.0001615,1
2,Mg(AgO2)2,AB2C4,205.01777849061745,4.925120552831495,14.644127035044102,-4.9313034035714285,0.6323,0.84956838,0,0,0,0,0.0001687,1
2,Mg(AgO2)2,AB2C4,178.77704563822795,5.64802528722447,12.76978897415914,-4.904572134285714,0.4414,1.7884477,0,0,0,0,0.0002094,1
1,Mg(AgO2)2,AB2C4,329.24489729812035,6.133654813339208,11.758746332075727,-4.813243631785714,0.0,2.59025853,0,1,0,0,0.0027473,1
3,Mg(AgO2)2,AB2C4,550.799898134966,5.499659375168796,13.114283288927762,-4.83022517,0.0,1.81240345,0,1,1,1,15.4695584,1
5,Mg(AgO2)2,AB2C4,724.384046091766,5.5757013423350825,12.935429394495822,-4.892523253928571,0.0,1.73652476,0,1,1,1,2.8201002,1
3,Mg(AgO2)2,AB2C4,548.3517679571905,5.524212741950113,13.055994475171204,-4.8563976066666665,0.0,1.87543621,0,1,1,1,9.2630811,1
1,Mg(AgO2)2,AB2C4,338.74942397432324,5.961558621670344,12.098193713368689,-4.9446807660714285,0.4927000000000001,1.90630442,0,0,0,0,0.0019624,1
1,Mg(AgO2)2,AB2C4,389.155197655503,5.189380898023403,13.898399916267964,-4.553760825357143,0.0,1.59620433,0,1,0,0,0.0099877,1
0,Mg(AgO2)2,AB2C4,184.01009588907272,5.487401490995891,13.143578277790908,-4.803208202857142,0.0,1.70764386,0,1,1,1,7.3590092,1
5,Mg(AgO2)2,AB2C4,542.0502795961601,5.588433283120556,12.905959038003813,-4.895628947857143,0.0,1.69144223,0,1,0,0,1.1292119,1
5,MnRe(PbO3)2,ABC2D6,406.9574871292575,9.199712272612429,13.56524957097525,-7.694842244333333,0.0,6.25250498,0,1,1,3,12.0000001,0
0,MnRe(PbO3)2,ABC2D6,135.88578412860778,9.183918226577635,13.588578412860778,-7.672523508,0.1757999999999997,6.17605927,0,0,1,3,3.9893583,0
1,MnRe(PbO3)2,ABC2D6,287.1286926935006,8.692714879064148,14.356434634675033,-7.6304195195,0.0,5.30559337,0,1,1,2,0.0351381,1
0,NaCaZrNbO6,ABCDE6,136.84450694447938,4.164492746170908,13.684450694447936,-8.32781832,2.284,1.9121233,1,0,0,0,8.73e-05,1
0,NaSrHfBiO6,ABCDE6,143.41825185601434,6.878394758510456,14.341825185601431,-7.267853990000001,1.3445,2.52514365,0,0,0,0,0.0,1
0,Nd3PbN,ABC3,205.21101794902825,5.291532619105942,41.042203589805645,-4.002619398,0.0,2.04820179,0,1,0,0,0.0001245,1
0,Nd3PbN,ABC3,126.51154360060356,8.583254653072126,25.30230872012071,-6.210092604000001,0.0,5.29090115,0,1,0,0,0.0001266,0
0,NpBeO3,ABC3,45.490614274963896,10.732229781422904,9.09812285499278,-9.27566219,0.0,10.48634322,0,1,1,1,2.9985094,1
0,PrEuZrVO6,ABCDE6,133.98311419279264,6.581440958160077,13.398311419279263,-9.471437848,0.0,5.29743898,0,1,1,1,9.0055998,1
0,Rb2CuNiF6,ABC2D6,141.02398996518662,4.794319642474107,14.102398996518662,-4.780264441,0.0,0.63019233,0,1,1,3,0.9995653,1
0,Rb2HgAsCl6,ABC2D6,308.66512227057444,3.546139446826479,30.866512227057445,-3.288893166,0.0,1.11697388,0,1,0,0,0.0447564,1
0,Rb2NaBiBr6,ABC2D6,385.9091213814174,3.796601247125005,38.59091213814174,-3.3482880619999995,3.136,-0.91179707,0,0,0,0,0.0027725,1
0,Rb2NaInI6,ABC2D6,452.51235580075,3.9270958780021257,45.251235580075,-2.7581784330000003,0.6818,0.8075,1,0,0,0,0.000635,1
0,Rb2TaAgBr6,ABC2D6,332.90248328598545,4.684668890561783,33.290248328598544,-3.972614255,0.0,2.19812084,0,1,1,1,1.9979865,1
0,Rb2TlAgBr6,ABC2D6,355.9475391468748,4.490699223048228,35.59475391468747,-3.012652254,0.0,-0.03693901,0,1,0,0,0.0022918,1
0,Rb2TlBiF6,ABC2D6,239.90058452028003,4.833407808719708,23.990058452028,-4.646726801,3.3382,0.54382196,0,0,0,0,0.0022244,1
0,Rb2YCuCl6,ABC2D6,283.652710511623,3.138429532143304,28.365271051162303,-4.496768969,2.6201,1.80780272,0,0,0,0,0.00019,1
0,ReNi(PbO3)2,ABC2D6,129.58173496316385,9.678832002322686,12.958173496316386,-7.159788367,0.0,6.84357601,0,1,1,1,2.9931961,1
0,Sr2CeNbO6,ABC2D6,156.93660207549686,5.335539273771444,15.693660207549687,-8.208310524,0.0,5.66451364,0,1,1,1,0.9999979,1
0,Sr2CeNbO6,ABC2D6,612.6680785491461,5.466851844796324,15.316701963728653,-8.26963838875,0.0,5.66816297,0,1,1,1,4.0096659,1
2,Sr2CoSbO6,ABC2D6,256.4165482320467,5.8533410033356486,12.820827411602334,-6.7911270265,0.2935000000000003,3.88733835,0,0,1,2,1.5e-05,1
5,Sr2CoSbO6,ABC2D6,512.4779703377711,5.857397127572926,12.811949258444278,-6.787421761750001,0.2515,3.69755952,0,0,1,2,0.0055046,1
1,Sr2CoSbO6,ABC2D6,160.46460279517194,4.67671208963224,16.046460279517195,-6.342903097,0.0,2.73077838,0,1,0,0,0.000337,1
5,Sr2CoSbO6,ABC2D6,256.27008527735984,5.8566862928071455,12.813504263867992,-6.7953378220000005,0.5760000000000001,3.41274817,0,0,1,1,8.0009378,1
5,Sr2CoSbO6,ABC2D6,256.5900220347928,5.84938371257833,12.82950110173964,-6.8015133655,0.6470000000000002,3.50769144,0,0,1,2,2.3e-06,1