Shape,formula_pretty,formula_anonymous,volume,density,density_atomic,energy_per_atom,band_gap,efermi,is_gap_direct,is_metal,is_magnetic,ordering,total_magnetization,theoretical
0,NdEuHfCrO6,ABCDE6,128.3086342884608,8.058682771480054,12.83086342884608,-9.754061392,0.0215000000000005,6.22645667,1,0,1,1,10.0000783,1
0,NdEuMnFeO6,ABCDE6,128.94212669974888,6.477533779930374,12.894212669974888,-8.824884238000001,0.0,4.06635343,0,1,1,1,14.9997362,1
0,PrEuMnSbO6,ABCDE6,134.52179880506688,6.981356210176792,13.452179880506687,-8.428847012,0.0,6.94804219,0,1,1,1,12.0000012,1
5,Sr4BiO7,AB4C7,403.0729812191699,5.532393901661773,16.794707550798744,-6.285590028333334,0.1803000000000001,1.77720803,0,0,1,1,2.0024316,0
6,SrCa7Ti3Mn5O24,AB3C5D7E24,1797.0694070805112,4.326078956052458,11.231683794253197,-7.98227512,0.5068000000000001,2.9031451,1,0,1,1,59.9999992,1
5,SrCa7Ti3Mn5O24,AB3C5D7E24,454.7114737748738,4.274284130108448,11.367786844371846,-7.937285371249999,0.0,3.40084228,0,1,1,1,15.2046795,1
6,SrLaEuNbO6,ABCDE6,304.2941638918522,6.192540699176397,15.214708194592609,-9.07346147,0.2374999999999998,5.78584227,1,0,1,1,13.9999992,1
0,SrLaEuNbO6,ABCDE6,163.12989096942724,5.77562451376646,16.312989096942722,-8.911103941,0.6536,4.96745544,0,0,1,1,6.9999999,1
2,SrLaEuNbO6,ABCDE6,311.78575865673406,6.0437462010468535,15.589287932836704,-9.0056313175,0.1391,5.6740938,0,0,1,1,13.9997286,1
1,SrLaEuNbO6,ABCDE6,634.57918233304,5.938908955362487,15.864479558326,-9.010783778,0.1435999999999992,5.48876714,0,0,1,1,27.9585126,1
1,SrNd2Mn3O9,AB2C3D9,720.7890792305792,6.311551528463293,12.013151320509651,-8.366401679833334,0.0,4.04056546,0,1,1,1,44.0004386,1
0,SrPrNiBiO6,ABCDE6,137.2452143809689,7.165041560952856,13.72452143809689,-6.737124647,0.3113000000000001,4.32636961,1,0,1,1,2.0000004,1
0,SrSmHfCrO6,ABCDE6,128.78815745675115,7.277936507442191,12.878815745675116,-8.894862669999998,2.6321000000000003,3.7396935,0,0,1,1,3.0000005,1
3,TmSb(PbO3)2,ABC2D6,144.33756040914176,9.216189119593656,14.433756040914176,-6.890610531,2.731,5.1272579,1,0,0,0,3.6e-06,0
5,TmSb(PbO3)2,ABC2D6,145.10600273340856,9.16738266324771,14.510600273340856,-6.892876685,2.3522,4.96570962,0,0,0,0,0.0,0
5,TmSb(PbO3)2,ABC2D6,289.2696692435371,9.19724668867021,14.463483462176857,-6.8948753275,2.3714000000000004,4.99769369,0,0,0,0,0.0016751,0
0,VPtO3,ABC3,55.45191986776771,8.804705797753165,11.09038397355354,-6.95606388,0.0,4.42729133,0,1,1,3,0.9984346,1
0,Y3SnC,ABC3,116.70906562829444,5.654759869195107,23.341813125658884,-7.185252328,0.0,4.97800543,0,1,0,0,1.52e-05,0
6,BaEuNbBiO6,ABCDE6,312.1590698803679,7.310885260429105,15.607953494018394,-8.4085365535,0.0891999999999999,5.40263531,0,0,1,1,13.9999998,1
1,BaNaTbBiO6,ABCDE6,648.5463707094224,6.393004098944764,16.213659267735558,-6.500524322,0.0,1.39550112,0,1,0,0,4.0000001,1
0,BaNaTbBiO6,ABCDE6,165.17242784036367,6.275502001926557,16.517242784036366,-6.490968473000001,0.0,1.48421155,0,1,0,0,1.0,1
0,BaSrCuBiO6,ABCDE6,143.4527563380536,6.869716643331384,14.34527563380536,-6.080280796,0.0,3.19012788,0,1,0,0,5.8e-06,1
0,BaTlO3,ABC3,82.32661349927436,7.8604738046438625,16.465322699854873,-5.525285378,0.0,3.01037417,0,1,0,0,0.0001515,1
0,Ca2DySbO6,ABC2D6,143.88654755520645,5.313441665932874,14.388654755520644,-7.179102192,3.1986000000000003,3.14100514,1,0,0,0,0.0,1
5,Ca2ScOsO6,ABC2D6,246.1231493912056,5.55041927876213,12.30615746956028,-8.0410401215,0.0,4.5232736,0,1,1,1,6.001041,0
0,Cs2EuCuCl6,ABC2D6,298.36103536661403,3.862698465582209,29.836103536661405,-4.795542294,0.0,1.7587529,0,1,1,3,6.0035239,1
0,Cs2InSbBr6,ABC2D6,414.4190696682696,3.934033933710932,41.44190696682696,-3.324881399,0.7464999999999999,1.65044089,1,0,0,0,0.0003053,1
0,Cs2NaScI6,ABC2D6,450.3014887271641,4.038616071130141,45.03014887271641,-3.471994257,2.2294,0.97416667,0,0,0,0,0.0003352,1
0,Cs2RbGdCl6,ABC2D6,392.82136715662847,3.048862481655281,39.28213671566285,-5.290524773,3.2357,-1.6288821,1,0,1,1,7.0000493,1
0,Cs2RbRuF6,ABC2D6,210.81297156101903,4.460960024052785,21.081297156101904,-4.961297316,0.0,1.64927924,0,1,1,1,1.0028722,1
0,EuIrO3,ABC3,64.50455212341306,10.095859304037548,12.900910424682612,-8.687974162,0.0,5.38653349,0,1,1,3,6.1412399,1
1,HoFeO3,ABC3,223.93725501008691,7.972035381205202,11.196862750504348,-8.4373758575,1.5675,3.50671299,1,0,1,1,20.0039385,0
0,K2LiCeI6,ABC2D6,446.9260131374069,3.665979011061871,44.692601313740695,-3.491312576,0.2547999999999999,2.62833333,0,0,1,1,0.999084,1
2,K2MgCuF6,ABC2D6,135.1133745845519,3.4416583291233103,13.511337458455191,-4.871712941,0.0,0.66784388,0,1,1,1,1.002938,1
2,K2MgCuF6,ABC2D6,134.50580636605326,3.45720444030022,13.450580636605329,-4.885084142999999,0.0,0.78008055,0,1,1,1,1.003768,1
0,K2TaAgBr6,ABC2D6,328.12878962534984,4.283504584123869,32.81287896253498,-3.964612363,0.0,2.13540532,0,1,1,1,1.9989408,1
0,K2TaNbO6,ABC2D6,132.31263572058137,5.623045560699668,13.231263572058136,-8.346772075,1.7028,1.55095161,1,0,0,0,4.1e-06,1
2,K2TaNbO6,ABC2D6,132.95695966132962,5.59579566807347,13.295695966132962,-8.346332276,1.3152,1.5821671,0,0,0,0,5.12e-05,1
0,KEuFeBiO6,ABCDE6,135.9125720232289,6.742754512281278,13.59125720232289,-7.179393014,0.0,2.68572917,0,1,1,1,11.0150971,1
0,KZrSnBiO6,ABCDE6,141.84047718016498,6.485833748524308,14.184047718016496,-7.031055521000001,0.9464,3.68352241,0,0,0,0,0.0,1
5,La3Sm(FeO3)4,AB3C4D12,249.23633654337647,6.545575644309725,12.461816827168828,-8.455566645000001,1.3941,4.6603581,1,0,1,1,20.0012212,1
5,LiSm2IrO6,ABC2D6,242.11800019907344,8.173475075568724,12.105900009953672,-7.729353958999999,0.0,3.70576999,0,1,1,1,4.060912,0
0,Mn3InC,ABC3,61.56740810448699,7.865920231522358,12.313481620897395,-7.866210946,0.0,7.48867615,0,1,1,1,6.0374939,0
0,Mn3InC,ABC3,131.21352720941383,3.690810934748907,26.24270544188277,-5.551797736,0.0,2.01223221,0,1,1,3,11.6834312,0
0,Na3RuF6,AB3C6,146.30568817984428,3.2236782020798413,14.630568817984429,-4.946720844,0.0,1.43368255,0,1,1,1,0.9996836,1
6,NaLiLa2Ti4O12,ABC2D4E12,241.44653216413457,4.753718180599667,12.072326608206728,-8.6497075875,1.9969,4.02538894,1,0,0,0,0.000201,1
2,NaLiLa2Ti4O12,ABC2D4E12,239.793310426459,4.786492031617338,11.98966552132295,-8.6428569495,1.6749,4.3197581,0,0,0,0,0.009087,1
0,NbGa(PbO3)2,ABC2D6,130.24713527119408,8.580500432442953,13.024713527119408,-7.226954709,2.6941000000000006,4.74122023,0,0,0,0,0.0006189,1
1,NiW3N,ABC3,257.5142645208167,16.100729241321968,12.875713226040835,-10.657684931,0.0,7.98716684,0,1,0,0,0.0065003,1
0,Rb2AlHgBr6,ABC2D6,342.3339255232255,4.258529011408227,34.23339255232255,-3.070020666,0.0,0.81471288,0,1,0,0,0.0013633,1
0,Rb2LiTlF6,ABC2D6,164.13213984664145,5.020607436266127,16.413213984664146,-4.503449981,3.4666,-1.87916667,1,0,0,0,0.0007745,1
0,Rb2PdAuF6,ABC2D6,175.70729297030647,5.559906020769162,17.570729297030645,-4.218414631,0.0,0.45809882,0,1,0,0,0.0019693,1
5,Sr2La2Cr3MoO12,AB2C2D3E12,248.9639816056686,5.982620877372669,12.44819908028343,-8.5666480315,1.4779999999999998,5.24684348,0,0,1,3,2.0124919,1
0,Sr8MnFe7O24,AB7C8D24,478.8106386609264,5.308885701098524,11.97026596652316,-7.273326367499999,0.0,2.72074221,0,1,1,1,33.1099434,1
0,SrCaHfVO6,ABCDE6,127.47938231981696,5.902391785603415,12.747938231981696,-8.507585594,0.0,4.5089968,0,1,1,1,1.0000001,1
0,Tm3InC,ABC3,166.97639742414253,6.301307211785533,33.39527948482851,-3.463179912,0.0,2.06816993,0,1,0,0,5.32e-05,0
0,USiO3,ABC3,54.68087788655943,9.538915254776812,10.936175577311886,-8.765367044,0.0,12.90555086,0,1,1,1,3.5260294,1
1,Ba5Y2CuMo2O15,AB2C2D5E15,766.676225426165,5.890639944772071,15.3335245085233,-7.7078781534,0.0,2.79486484,0,1,1,1,2.0003895,1
1,BaPrEuNbO6,ABCDE6,644.3050153080565,6.38233188491569,16.10762538270141,-8.99648634975,0.0738000000000003,4.6596081,1,0,1,2,0.0017197,1
0,BaPrEuNbO6,ABCDE6,164.50272120904086,6.249392734339917,16.450272120904085,-8.936194292,0.5572999999999997,4.1187279,0,0,1,1,6.9999999,1
1,BaSrInBiO6,ABCDE6,616.1665358721262,6.950192095418766,15.404163396803156,-6.28939557725,0.4186999999999998,3.31036273,1,0,0,0,0.0,1
0,BaSrInBiO6,ABCDE6,155.13013668554038,6.901424633823557,15.513013668554038,-6.2498787700000005,0.0,3.30387129,0,1,0,0,0.0,1
6,Ca3LaTi2Cr2O12,AB2C2D3E12,462.5328707766438,4.673293443762222,11.563321769416095,-8.5023950125,0.7309000000000001,4.94539974,0,0,1,2,1.5e-05,1
5,Ca3TbMn4O12,AB3C4D12,221.61582248393933,5.17685794447841,11.080791124196969,-7.985174605,0.0,3.71243338,0,1,1,1,13.0006464,1
6,Ca6La14Mg7Ti13O60,A6B7C13D14E60,1229.283585276989,5.3188677240197775,12.29283585276989,-8.5396603352,1.1974,5.57532179,0,0,0,0,2.27e-05,1
0,Ce3SnN,ABC3,203.1127969285428,4.521554301822287,40.62255938570856,-4.746509804,0.0,3.80366316,0,1,1,3,4.8073011,1
0,Ce3SnN,ABC3,123.00846147221452,7.466035504515731,24.601692294442906,-7.078435411999999,0.0,8.59587835,0,1,1,1,3.0449487,1
0,CeGaO3,ABC3,85.9685597555511,4.980294477890348,17.19371195111022,-7.001328244,0.0,1.63855234,0,1,1,1,0.9933301,0
0,CeGaO3,ABC3,59.063110754509616,7.249004293091136,11.812622150901923,-7.652547534,0.0,7.94249507,0,1,1,1,0.9999881,0
1,CeGaO3,ABC3,241.53359368034128,7.090504254897029,12.076679684017062,-7.757944517,0.0,8.61590784,0,1,1,1,3.9988675,1
0,CeRu3C,ABC3,71.96240089917968,10.506936530175484,14.392480179835935,-8.838676454,0.0,9.09503889,0,1,0,0,3.87e-05,1
0,Cs2RbInI6,ABC2D6,534.5433591072483,3.813256177842497,53.45433591072483,-2.784652964,1.3972,0.24083333,1,0,0,0,0.0023371,1
0,Cs2TmCuCl6,ABC2D6,286.33442750674567,4.123354709575503,28.63344275067457,-4.306836221999999,2.4365,2.09947309,0,0,0,0,0.0001528,1
4,CsCdCl3,ABC3,896.796766964518,3.907044593531172,29.89322556548393,-3.3138657456666665,2.4918,-0.69453597,1,0,0,0,0.0,0
0,CsCdCl3,ABC3,145.8972327527039,4.002617565982152,29.17944655054078,-3.306393628,1.7462,-0.43431685,0,0,0,0,0.0,0
0,K2LiMoF6,ABC2D6,144.75385679083584,3.3848629946618334,14.475385679083583,-5.646236603,4.4161,4.66267797,0,0,1,1,3.0000105,1
0,K2TlAsCl6,ABC2D6,333.38619952926774,2.8401648227313423,33.33861995292678,-3.616185289,1.905,0.78101832,1,0,0,0,0.0003615,1
0,K9U6BiO24,AB6C9D24,673.8572120127109,5.847677005483054,16.84643030031777,-8.09747851075,1.7912000000000003,2.24284066,0,0,0,0,0.0227918,0
0,KCaCeSbO6,ABCDE6,149.59534739995206,4.851330291820132,14.959534739995206,-7.055935514,1.9872999999999996,3.19021465,1,0,0,0,0.0,1
1,KDyBr3,ABC3,682.280243482244,4.29625802970821,34.114012174112204,-3.9942476695,0.0,3.7034052,0,1,1,1,3.9746176,1
0,KLaTiSnO6,ABCDE6,129.71794577507848,5.639895068224432,12.971794577507849,-7.681237394999999,2.6740000000000004,4.88609501,0,0,0,0,0.0,1
5,La3Fe4AgO12,AB3C4D12,243.7397763349309,6.403698336460098,12.186988816746544,-7.878167646500001,0.0,5.16865496,0,1,1,1,18.0000355,1
0,Rb2GaHgBr6,ABC2D6,341.18526321493874,4.480887613498941,34.118526321493874,-2.894548667,0.0,0.77593375,0,1,0,0,0.0018747,1
0,Rb2TlAgF6,ABC2D6,195.99460625835013,5.059509642932452,19.59946062583501,-4.211534655,0.5523,0.09454068,0,0,0,0,1.47e-05,1
0,Rb2TlAsBr6,ABC2D6,387.98504602503607,3.9788755698113687,38.798504602503606,-3.256773673,1.2058,0.68998394,1,0,0,0,0.0010019,1
0,Sr2HfCoO6,ABC2D6,130.46945056070854,6.473922634520574,13.046945056070854,-7.814851131,0.0,2.69812083,0,1,1,1,4.9898687,1
0,Sr2HoReO6,ABC2D6,144.46637440251996,7.153746886494456,14.446637440251996,-8.030264956,0.0,4.63764304,0,1,1,1,1.9994257,0
0,Sr2NbFeO6,ABC2D6,260.5424451833529,5.353493291227975,13.027122259167646,-8.088352271,1.7829000000000002,2.86989523,0,0,1,2,0.0,1
2,Sr2NbFeO6,ABC2D6,131.3154549789393,5.310921827872111,13.13154549789393,-8.059662470000001,1.1662,4.49761541,0,0,1,1,4.9999212,1
0,SrCrBiSbO6,ABCDE6,131.0259878755111,7.177592256169315,13.102598787551113,-6.978196178,0.0,7.12554058,0,1,1,1,3.301791,1
5,SrLaZnRuO6,ABCDE6,255.75749442179008,6.349804529264316,12.787874721089503,-7.206087635999999,0.4717000000000002,5.11356639,0,0,1,1,6.0000022,1
0,SrRuO3,ABC3,63.39114104699642,6.200077742911311,12.678228209399284,-7.311415368,0.0,4.76897774,0,1,1,1,2.0018387,0
1,SrRuO3,ABC3,121.67083063950936,6.460546059190099,12.167083063950937,-7.347824645999999,0.0,4.45852776,0,1,1,1,3.9994139,1
1,SrRuO3,ABC3,243.4247904913068,6.458339792097221,12.17123952456534,-7.352754366000001,0.0,4.44164647,0,1,1,1,8.0012349,0
1,SrRuO3,ABC3,353.5414934632131,4.446776516704734,17.677074673160654,-6.8430263375,0.0,1.19458259,0,1,1,1,1.3669357,1
1,SrRuO3,ABC3,386.9285364843332,4.0630758979354615,19.34642682421666,-6.8561200505,0.0,0.52979516,0,1,1,1,1.2542997,1
1,SrRuO3,ABC3,124.54563470890515,6.311421570444362,12.454563470890516,-7.309746427,0.0,4.39307126,0,1,1,1,2.004342,1
2,SrRuO3,ABC3,121.7170792137346,6.458091259535982,12.17170792137346,-7.342385074000001,0.0,4.57937706,0,1,1,1,4.0143909,0
1,SrRuO3,ABC3,3116.7945187666323,0.5044028412354403,155.8397259383316,-3.1924812135,0.0072,-3.08550298,0,0,1,1,32.0,0
2,SrRuO3,ABC3,89.21277546643073,4.405534976894925,17.842555093286144,-6.84201519,0.0,1.19319533,0,1,0,0,0.0062084,1
0,ThBO3,ABC3,49.92278073019239,9.674205454494649,9.984556146038477,-8.176784634,0.0,10.35622653,0,1,0,0,0.0006974,1
5,CaTaNO2,ABCD2,250.14205498833695,7.090627579897101,12.507102749416848,-9.1226992955,1.2321999999999995,4.17716273,1,0,0,0,0.0006844,1
1,CaTaNO2,ABCD2,251.33759566123985,7.056899503339866,12.566879783061992,-9.1718990845,1.5507999999999995,3.97552073,0,0,0,0,2.5e-06,1
0,Cs2NaAuBr6,ABC2D6,354.1883469096828,4.525100213482495,35.418834690968275,-2.986521713,0.0,0.21360295,0,1,0,0,0.1733207,1
0,Cs2RbTaF6,ABC2D6,222.27040492581585,4.827761839642183,22.227040492581583,-5.541619504,0.0,3.94787071,0,1,1,1,1.9689644,1
0,InNi3N,ABC3,56.61672131196684,8.94270254997529,11.323344262393368,-5.840910806,0.0,9.23455726,0,1,0,0,3e-05,0
0,K2NaInI6,ABC2D6,446.9558416619876,3.631371431856544,44.69558416619876,-2.741235183,0.6835,0.78083333,1,0,0,0,2.97e-05,1
0,KBaLaSeO6,ABCDE6,148.97911581669632,5.464799513506802,14.897911581669632,-6.544620727,1.9314,3.35049618,0,0,0,0,0.0,1
1,KBaLaSeO6,ABCDE6,595.9984163424656,5.464048073375707,14.89996040856164,-6.54398729425,1.9081,3.35032058,1,0,0,0,0.0,1
0,KBaO3,ABC3,126.03265569426269,2.956884365883196,25.206531138852537,-4.821337168,0.0,-1.51674926,0,1,1,1,3.0000002,1
0,KLaHfTiO6,ABCDE6,130.9414274442515,6.345299911994303,13.09414274442515,-8.864735505,2.3179000000000003,3.89186632,1,0,0,0,0.0,1
1,KMnF3,ABC3,307.6339390337806,3.2609379509988563,15.381696951689031,-6.221887712,3.4193,0.173251,1,0,1,1,20.0070808,1
1,KMnF3,ABC3,290.87827856162966,3.448779990624073,14.543913928081484,-6.222718584499999,2.7828,0.60533097,1,0,1,1,20.0000022,0
0,KMnF3,ABC3,73.17514769812144,3.4273083771181687,14.635029539624288,-6.220475058,2.6564,0.84782929,0,0,1,1,5.0000003,0
2,KMnF3,ABC3,145.31715903321,3.4516749208579816,14.531715903321,-6.222539082,2.7802,0.63139417,1,0,1,1,9.9999996,0
2,KMnF3,ABC3,292.38735855159945,3.4309800251965643,14.619367927579972,-6.2213718495,2.8989000000000003,0.6084949,1,0,1,1,20.0000027,0
1,KMnF3,ABC3,145.3773548581438,3.4502456995087067,14.53773548581438,-6.222445335000001,2.4058,0.73037579,0,0,1,1,9.9999996,0
2,KMnF3,ABC3,146.038551017863,3.4346245557031656,14.6038551017863,-6.220977369000001,1.7405,0.90776526,1,0,1,1,9.9999993,1
5,KMnF3,ABC3,310.3843299606014,3.232041987873104,15.51921649803007,-6.221057308500001,2.6892,0.71014813,0,0,1,1,20.0072372,0
0,KRb2AuBr6,ABC2D6,388.69504484866616,3.786882492772049,38.86950448486662,-2.95300862,0.0,-0.61057486,0,1,1,1,1.9986971,1
0,KRbO3,ABC3,125.1951764956113,2.2888242955632343,25.03903529912226,-3.722227012,0.0,-2.13539937,0,1,1,1,4.0000005,1
6,La3Mn3O10,A3B3C10,589.7856779493885,6.263277603297214,12.287201623945592,-8.21169403125,0.1951,6.12661921,0,0,1,3,1.0098213,1
6,La3Mn3O10,A3B3C10,589.7857895310148,6.263276418347165,12.287203948562809,-8.589596618958334,0.0,6.07005062,0,1,1,1,29.9981839,1
3,LiMnF3,ABC3,356.56221986689513,3.321642049176313,11.885407328896504,-6.376579277333334,4.8057,-0.51879588,1,0,1,1,29.9972445,1
6,LiMnF3,ABC3,1192.9893344488517,2.978330220876692,13.255437049431684,-6.340042525111111,3.2519,-0.66901696,0,0,1,1,90.0013408,1
3,LiMnF3,ABC3,378.3071030561871,3.130715900096707,12.61023676853957,-6.314641766333334,2.4262,0.241203,1,0,1,1,29.9992905,1
1,LiMnF3,ABC3,122.91408651380723,3.211923862837004,12.291408651380724,-6.374038946000001,3.3435,-0.06789139,1,0,1,1,10.0000001,1
4,LiMnF3,ABC3,178.23643141457626,2.214983123367355,17.823643141457627,-6.31590179,3.7715,-2.28013571,0,0,1,1,10.0,1
6,LiMnF3,ABC3,486.470476241664,3.2461635953947536,12.1617619060416,-6.309294973999999,3.1095,-0.0358831,0,0,1,3,20.0000001,1
1,LiMnF3,ABC3,116.86376712032371,3.378212916463923,11.686376712032372,-6.306377044,3.4463,0.3930891,0,0,1,1,10.0,1
0,LiMnF3,ABC3,239.3035514208172,3.2994971048989323,11.965177571040858,-6.362736642,3.4012,0.0779682,0,0,1,1,19.9994274,1
0,LiMnF3,ABC3,243.074602220817,3.24830882326298,12.15373011104085,-6.375878756500001,2.9855,0.22825718,0,0,1,1,20.0151153,1
1,LiMnF3,ABC3,240.40487802350825,3.284381671439333,12.020243901175412,-6.330681584,3.383,-0.2009693,1,0,1,1,19.9989281,1
1,LiMnF3,ABC3,295.1345693104732,2.6753266381153806,14.75672846552366,-6.3178712595,2.708,-0.45583485,0,0,1,1,20.0003155,1
5,LiMnF3,ABC3,251.8440722930937,3.1351993633033053,12.592203614654686,-6.3094670100000005,3.595,-0.50200696,1,0,1,1,19.9993222,1
1,LiMnF3,ABC3,496.5098535132229,3.180526507250842,12.412746337830573,-6.3812011042500005,3.4757,-0.27841273,1,0,1,1,40.0073808,1
4,LiMnF3,ABC3,113.94086423866416,3.4648735569142985,11.394086423866415,-6.383962293000001,3.5925,0.25324795,0,0,1,1,9.9999775,1
1,LiMnF3,ABC3,258.9370759337948,3.0493175697515778,12.94685379668974,-6.3687901235,2.9514,0.09663738,1,0,1,1,19.9995612,1
1,LiMnF3,ABC3,1054.1474032690624,2.996094749771859,13.17684254086328,-6.3698282155,3.7601,-0.85983435,0,0,1,1,79.99964,1
1,LiMnF3,ABC3,127.30875709250624,3.101048950353377,12.730875709250624,-6.3331525740000005,2.9983,-0.1786243,0,0,1,1,9.9999694,1
6,LiMnF3,ABC3,661.7984887208629,2.982710706362964,13.235969774417258,-6.3295171656,3.4213,-0.95752863,0,0,1,1,49.9929305,1
1,LiMnF3,ABC3,103.98842920962474,3.796486691386327,10.398842920962474,-6.341437138000001,4.4878,4.60624328,0,0,1,1,10.0000001,1
5,LiMnF3,ABC3,269.7844974731704,2.9267114400579723,13.48922487365852,-6.337088572000001,3.3288,-0.71049912,0,0,1,1,20.0005821,1
1,LiMnF3,ABC3,253.7839876421476,3.111234016144397,12.68919938210738,-6.332934342500001,3.5585,-0.26494973,0,0,1,1,20.0004577,1
1,LiMnF3,ABC3,234.2553423689533,3.3706013579892,11.712767118447667,-6.364553785,3.047,3.63487829,1,0,1,1,20.0028118,1
1,LiMnF3,ABC3,553.9437556390793,2.850763699625378,13.848593890976982,-6.35977178375,3.5986,-1.04720752,0,0,1,1,40.0004134,1
1,LiMnF3,ABC3,255.2273736483216,3.093639070991598,12.76136868241608,-6.3054804785,3.4080000000000004,-0.58468784,0,0,1,1,20.0011722,1
3,LiMnF3,ABC3,124.314426343666,3.175743147147818,12.4314426343666,-6.374343016,3.1386000000000003,0.28821645,0,0,1,1,10.0192488,1
3,LiMnF3,ABC3,118.32417853187748,3.336517459499199,11.832417853187748,-6.368059022,3.7869,-0.15908149,0,0,1,1,9.9995206,1
2,LiMnF3,ABC3,490.9415900625844,3.216600064396111,12.27353975156461,-6.3306632355,3.0923,-0.22641608,1,0,1,1,39.9989933,1
1,LiMnF3,ABC3,215.82661626550947,3.658405940691196,10.791330813275474,-6.3694095065,3.7722,0.38769938,0,0,1,1,20.0024638,1
5,LiMnF3,ABC3,803.4280426128704,2.948296548887614,13.390467376881173,-6.342484478666667,3.5182,-0.98334917,0,0,1,3,20.0000001,1
1,LiMnF3,ABC3,161.47407489331906,2.4449168562404555,16.147407489331904,-6.321410674000001,3.8619,-2.24204624,1,0,1,1,9.999847,1
5,LiMnF3,ABC3,252.1597564876359,3.131274340137358,12.607987824381794,-6.378835669999999,3.6287,-0.62906205,0,0,1,1,20.0002517,1
1,LiMnF3,ABC3,441.1836538346783,3.579377287631302,11.029591345866958,-6.355703264250001,0.0,2.59025554,0,1,1,2,0.0007839,1
1,LiMnF3,ABC3,244.8696683875661,3.2244964445956352,12.243483419378304,-6.3789965685,3.6288,-0.14208426,0,0,1,1,20.0034563,1
6,LiMnF3,ABC3,925.2028506676168,2.9869501708446182,13.217183580965957,-6.3370570950000005,3.3597,-0.65134771,0,0,1,1,70.000359,1