Shape,formula_pretty,formula_anonymous,volume,density,density_atomic,energy_per_atom,band_gap,efermi,is_gap_direct,is_metal,is_magnetic,ordering,total_magnetization,theoretical
3,NaMgTi2BiO6,ABCD2E6,127.52064740736346,5.833806249958355,11.592786127942132,-7.239557235454546,0.0175,6.84186894,0,0,0,0,0.0,1
3,NaMgTi2BiO6,ABCD2E6,141.95633215177682,5.240560520036663,12.905121104706984,-7.183085675454546,0.0,6.0846096,0,1,0,0,0.0440347,1
5,NaMgTi2BiO6,ABCD2E6,156.65676207319436,4.748794370563001,14.24152382483585,-7.275456400909092,0.0,5.79951957,0,1,0,0,1e-07,1
1,NaSrNdWO6,ABCDE6,594.9839876378084,5.96903857573228,14.874599690945209,-7.901777207250001,3.0272,1.54624903,0,0,0,0,0.0,1
0,NaSrNdWO6,ABCDE6,135.109330360318,6.571497254634044,13.5109330360318,-7.750751775,3.1607000000000003,2.55731998,0,0,0,0,0.0,1
0,NaSrNdWO6,ABCDE6,154.63264403517195,5.741805678083882,15.463264403517195,-7.847702401000001,2.8581000000000003,1.57865596,0,0,0,0,0.0,1
0,PuInO3,ABC3,71.40333675976989,9.46082107196941,14.280667351953976,-8.571502524,0.0,7.82042073,0,1,1,1,5.0055607,1
0,PuSbO3,ABC3,80.38123021840794,8.547538440992328,16.076246043681586,-8.76589625,0.0,7.55443666,0,1,1,1,3.452202,1
0,Rb2GaAgI6,ABC2D6,403.217156249037,4.571039003572887,40.321715624903696,-2.689693397,0.0,1.30901395,0,1,0,0,0.0003973,1
0,Rb2LiMoCl6,ABC2D6,263.19268979731106,3.0696510270660964,26.319268979731103,-4.452588703,1.5379999999999998,1.6475,0,0,1,1,2.9991633,1
0,Rb2LiNdCl6,ABC2D6,302.12489518005987,2.9395693063235293,30.212489518005988,-4.410962945,4.8504000000000005,-0.98583333,1,0,0,0,1.64e-05,1
0,Rb2LiYF6,ABC2D6,165.37917938297778,3.823263769762375,16.537917938297777,-5.77017989,6.8909,-2.53916667,1,0,0,0,0.0006901,1
0,Rb2NaAsF6,ABC2D6,171.14873935504798,3.714409128117311,17.114873935504797,-4.743874368999999,4.543,-0.27182579,0,0,0,0,0.0006069,1
0,Rb2NaGaCl6,ABC2D6,277.8072514687602,2.847387755437312,27.780725146876023,-3.700475295,2.9042,-0.62488598,1,0,0,0,0.0011545,1
0,RbRuO3,ABC3,62.97762089316109,6.184041013311599,12.595524178632218,-6.458186190000001,0.0,3.19489095,0,1,0,0,0.0416099,1
2,Sr2CrWO6,ABC2D6,256.55382715121806,6.56403145646491,12.827691357560903,-8.3310994725,1.1375000000000002,4.49494639,0,0,1,3,4.0017218,1
0,Sr2CrWO6,ABC2D6,255.77904197651023,6.583914689350159,12.788952098825511,-8.333908189499999,0.0,5.36785747,0,1,1,2,1e-06,1
0,Sr2CuBiO6,ABC2D6,136.36267071785252,6.62160228756498,13.636267071785252,-6.06295956,0.0,3.51839556,0,1,0,0,2.34e-05,1
3,Sr2NdCu2RuO9,ABC2D2E9,182.852396442086,6.280983665599851,12.190159762805736,-6.793594190666667,0.0,3.91007849,0,1,1,1,2.6413971,1
5,Sr2TmRuO6,ABC2D6,276.6374477480527,6.497682686502743,13.831872387402637,-7.5724372175,0.0,3.27641607,0,1,1,1,5.9993641,0
6,Sr4CaY2(RuO6)2,AB2C2D4E12,308.67304938505424,5.177883220236699,14.698716637383535,-7.471221926666666,0.0,3.79204626,0,1,1,1,4.0008541,1
6,Sr4CaY2(RuO6)2,AB2C2D4E12,304.9302310798043,5.241438335879125,14.520487194276395,-7.464085765238095,0.0,3.91985293,0,1,1,3,0.1701922,1
0,Sr4Fe3MoO12,AB3C4D12,250.215956569652,5.34861095946046,12.5107978284826,-7.542680659,0.0389000000000003,3.38061365,0,0,1,1,14.0074246,1
2,Sr4Fe3MoO12,AB3C4D12,250.8729380761516,5.3346041139522375,12.54364690380758,-7.549633871499999,0.0293999999999998,3.41743922,1,0,1,1,14.0003552,1
5,Sr4La(CoO3)5,AB4C5D15,290.6139053735194,5.851277087355872,11.624556214940776,-6.9559109084,0.0,3.50347804,0,1,1,1,12.1783536,1
6,Sr8MgMn6O20,AB6C8D20,489.90494631273606,4.660177607829698,13.997284180363888,-7.356703932857144,0.8969,2.54503561,0,0,1,1,19.965205,1
6,Sr8MgMn6O20,AB6C8D20,488.2122932295034,4.676334644646869,13.948922663700095,-7.361544460857143,0.9587000000000004,2.58084939,0,0,1,1,19.970609,1
6,Sr8MgMn6O20,AB6C8D20,480.2481848834868,4.753883788911171,13.721376710956765,-7.37119905257143,0.8039999999999998,2.71281265,0,0,1,1,19.9727507,1
6,Sr8MgMn6O20,AB6C8D20,494.0232478781412,4.621329199744001,14.114949939375464,-7.360438595142857,0.8544999999999998,2.60089542,1,0,1,1,19.9510054,1
6,Sr8MgMn6O20,AB6C8D20,480.2670319185353,4.753697233081952,13.721915197672436,-7.372397484857143,0.7673999999999999,2.59504064,0,0,1,1,19.9628571,1
6,Sr8MgMn6O20,AB6C8D20,489.5575160929088,4.663484852591546,13.987357602654535,-7.386992354285714,0.7359,2.76205491,0,0,1,1,19.9726846,1
6,Sr8MgMn6O20,AB6C8D20,480.26401393259727,4.753727105383408,13.72182896950278,-7.391109494,0.4194,2.73948631,0,0,1,1,19.9587114,1
5,Sr8MgMn6O20,AB6C8D20,468.9369887890735,4.868551885120176,13.398199679687814,-7.39311698457143,0.5440999999999998,3.1799433,0,0,1,1,19.9668758,1
5,Sr8MgMn6O20,AB6C8D20,480.4316324620557,4.752068570239152,13.726618070344449,-7.34516003,0.9159000000000002,2.82136467,0,0,1,1,19.9545969,1
6,Sr8MgMn6O20,AB6C8D20,479.9680727590232,4.75665818279931,13.713373507400664,-7.371265058285714,0.7530999999999999,2.70227632,0,0,1,1,19.9456376,1
6,Sr8MgMn6O20,AB6C8D20,473.1620527186409,4.82507852786158,13.518915791961168,-7.3998332591428575,1.0913999999999997,2.61547954,0,0,1,1,19.9665797,1
3,SrCa7TiMn7O24,ABC7D7E24,447.17665488079086,4.398819812243821,11.179416372019771,-7.7261584155,0.0,3.3529316,0,1,1,1,21.3702219,1
6,SrCa7TiMn7O24,ABC7D7E24,1778.169178911896,4.424887243330186,11.11355736819935,-7.776444155749999,0.3636999999999997,2.83307333,1,0,1,1,84.0000051,1
1,SrCaLaSbO6,ABCDE6,609.3502787716318,5.279711945317592,15.233756969290797,-7.218654309500001,3.5438,3.8039759,0,0,0,0,0.0,1
5,SrCaLaSbO6,ABCDE6,290.1175156595293,5.544639279016788,14.505875782976466,-7.341428849000001,3.6607,3.93631308,0,0,0,0,0.0024878,1
6,SrCaLaSbO6,ABCDE6,298.9388374159886,5.381023712948178,14.94694187079943,-7.2855586635,3.470800000000001,3.84880119,0,0,0,0,6.5e-06,1
1,SrCaLaSbO6,ABCDE6,305.91720393567704,5.25827561236086,15.295860196783853,-7.210916439499999,3.170699999999999,4.08209107,0,0,0,0,2.45e-05,1
0,SrCaLaSbO6,ABCDE6,159.1554149613385,5.053541449555297,15.915541496133846,-7.119204433,3.1114,3.7447979,1,0,0,0,0.0,1
5,SrLaFeRuO6,ABCDE6,251.85399482245364,6.322104623868752,12.592699741122685,-7.920228122,0.0,5.83090251,0,1,1,1,14.0016764,1
0,SrLaNbZnO6,ABCDE6,132.40550202899513,6.030331263172587,13.240550202899511,-7.792832000999999,2.3729,4.34540638,0,0,0,0,2.32e-05,1
5,SrLaTiMnO6,ABCDE6,246.9090678734564,5.72090741354165,12.345453393672818,-8.587164738000002,0.0,5.57655916,0,1,1,2,0.0,1
6,SrLaTiMnO6,ABCDE6,248.97129423355432,5.67352120338355,12.448564711677715,-8.5942627945,1.5587,4.79366596,0,0,1,1,8.0010948,1
3,SrLaTiMnO6,ABCDE6,123.82716977426672,5.703691360478241,12.382716977426671,-8.565439212000001,1.3689,5.47626111,0,0,1,1,3.999979,1
6,SrLaTiMnO6,ABCDE6,496.4623028275725,5.6904377586086685,12.411557570689313,-8.591032495750001,0.7541000000000002,5.17883366,0,0,1,2,0.0001027,1
5,SrLaTiMnO6,ABCDE6,493.4508170450186,5.7251659864575535,12.336270426125465,-8.598716308,0.0,5.86833263,0,1,1,1,15.9978927,1
0,SrNdNiBiO6,ABCDE6,136.15321217745748,7.263174094117882,13.615321217745748,-6.724720754000001,0.3864000000000001,4.4768339,1,0,1,1,2.0000004,1
0,SrYbO3,ABC3,80.39100889342019,6.375576154367508,16.07820177868404,-6.003040478,0.0,0.5707789,0,1,1,1,2.0001086,1
0,Tb3InN,ABC3,112.38382317002284,8.948117938788002,22.476764634004567,-6.0555647,0.0,4.79004376,0,1,0,0,2.06e-05,0
3,TlCdF3,ABC3,86.27465927655057,7.194373047437345,17.25493185531011,-4.094563175999999,4.1944,-0.57955113,0,0,0,0,0.0,1
5,TlCdF3,ABC3,86.5262629373115,7.173453033858041,17.3052525874623,-4.09466794,4.2415,-0.59238955,0,0,0,0,0.0,1
1,TlCdF3,ABC3,678.6302714587923,7.316998483333884,16.965756786469807,-4.10346525225,3.7002,-0.11568852,1,0,0,0,0.0,1
0,Tm3GaC,ABC3,142.68368955345835,6.849329248051409,28.53673791069167,-3.947677526,0.0,1.67819482,0,1,0,0,0.001074,0
0,ZnNi3N,ABC3,51.77056123443007,8.195022676786662,10.354112246886016,-5.608231692,0.0,6.68338461,0,1,0,0,3.5e-06,1
4,Ba3SmIrRuO9,ABCD3E9,463.3283119467477,7.165167059107088,15.44427706489159,-7.425774764666667,0.0,3.53964279,0,1,1,1,4.0006249,1
6,Ba5Ce4YO15,AB4C5D15,878.0410028571267,5.961003345421917,17.560820057142536,-8.0574235444,0.0,2.37214939,0,1,0,0,2.0026843,1
1,BaEuDySnO6,ABCDE6,603.5839479559592,7.3344890912710685,15.089598698898978,-8.07535818825,0.0,2.95003556,0,1,1,1,23.9999991,1
0,BaEuDySnO6,ABCDE6,154.5420466861094,7.161448901574588,15.454204668610938,-7.974065919999999,0.0,2.67266219,0,1,1,1,5.9999942,1
5,BaSr7Co5(CuO8)3,AB3C5D7E24,474.56800483214136,5.668315502926727,11.864200120803536,-6.37384864175,0.0,2.72291313,0,1,1,3,9.2014995,1
3,BaSr7MnFe7O24,ABC7D7E24,484.6437138182243,5.415300546926522,12.116092845455608,-7.26649832425,0.0,2.67050336,0,1,1,1,33.2572312,1
6,BaSrCeTiO6,ABCDE6,297.337458259524,5.684397614554702,14.8668729129762,-8.2324342185,2.1393000000000004,2.87388006,0,0,0,0,0.0,1
1,BaSrCeTiO6,ABCDE6,593.3493628567039,5.697096665986923,14.8337340714176,-8.231679777,2.0698000000000003,3.01745914,0,0,0,0,0.0,1
0,BaSrCeTiO6,ABCDE6,149.72228715740985,5.644397940138427,14.972228715740986,-8.217613749,2.1429,3.11765591,1,0,0,0,0.0,1
2,BaTaNO2,ABCD2,70.80942081071547,8.542674057494262,14.161884162143092,-9.035738398,0.3398000000000003,4.40064029,1,0,0,0,3.38e-05,1
1,BaUO3,ABC3,344.11620657799807,8.171612091758092,17.205810328899904,-9.097313798,0.0,7.12532766,0,1,0,0,0.0307809,1
0,BiPtO3,ABC3,67.45428325640967,11.128538791158809,13.490856651281934,-5.715715784,0.0,6.22996859,0,1,0,0,0.0024045,1
1,CaBiO3,ABC3,289.41061862777906,6.817636362206685,14.470530931388954,-6.396315561,0.0,4.26308292,0,1,0,0,1.5e-06,1
5,CaBiO3,ABC3,289.0372280681903,6.826443674238326,14.451861403409517,-6.4121261725,0.6776,4.00228375,0,0,0,0,0.0,1
1,CaBiO3,ABC3,307.5353457063267,6.415836048483473,15.376767285316337,-6.312575148500001,0.0,3.29181008,0,1,0,0,0.0042208,1
3,CaBiO3,ABC3,156.56459992332617,6.3012212151781295,15.656459992332618,-6.391285753,0.0804,3.86516997,0,0,0,0,9.76e-05,1
5,CaLaTiCrO6,ABCDE6,474.805001938552,5.24376443368578,11.8701250484638,-8.79451672325,2.3315,5.010594,0,0,1,2,4.39e-05,1
0,Cs2BiAuCl6,ABC2D6,327.2278400056792,4.488330639055779,32.72278400056792,-3.589888463,0.9914,1.3984209,0,0,0,0,0.0005749,1
0,Cs2CuBiBr6,ABC2D6,348.93807326421194,4.8433591371210944,34.8938073264212,-3.373071512,0.8439000000000001,1.41549458,0,0,0,0,0.0005846,1
0,Cs2CuBiF6,ABC2D6,194.6210934779787,5.565767044620417,19.46210934779787,-4.644099944,1.1622999999999997,3.22569531,0,0,0,0,0.0003749,1
0,Cs2YCuF6,ABC2D6,188.7301238691923,4.683021284407587,18.873012386919232,-5.534737802,1.4267000000000003,2.675,0,0,0,0,0.0,1
4,CsMnF3,ABC3,505.0130043739792,4.830341796798406,16.833766812465974,-6.150157400333334,3.4556,0.74828653,0,0,1,1,30.0000033,0
0,CsTmH3,ABC3,88.22804230427565,5.737832422131382,17.64560846085513,-3.379162214,0.0,3.64122836,0,1,0,0,0.0003232,1
0,Er3SnC,ABC3,171.20599409098728,6.134640004639514,34.241198818197454,-3.901564086,0.0,2.14495624,0,1,0,0,0.0034011,0
0,EuTiO3,ABC3,59.49625945750218,6.916906578608999,11.899251891500436,-10.1548811515,0.0,5.94746762,0,1,1,1,6.9721765,0
2,EuTiO3,ABC3,118.31253652456532,6.956660393444921,11.831253652456532,-10.164019363,0.0,5.36303096,0,1,1,1,13.9952801,0
0,HfZnO3,ABC3,67.7504521495989,7.154294748629557,13.55009042991978,-7.653380586,0.0,1.38873229,0,1,0,0,0.0123883,1
0,K2LiTaCl6,ABC2D6,256.33720532246747,3.1016640084058262,25.63372053224675,-4.604598341,0.0,3.0738839,0,1,1,1,1.99861,1
0,K2NaRhF6,ABC2D6,154.60154636911963,3.4164474988723152,15.460154636911962,-4.878004295999999,2.0001,0.0582441,1,0,0,0,0.0,0
0,K2NaSbCl6,ABC2D6,313.13213582996923,2.3103272463478985,31.313213582996923,-3.715913913,3.1323000000000003,0.09976012,0,0,0,0,0.001281,1
0,K3IO,ABC3,148.3913038780024,2.911695034511509,29.67826077560048,-3.4190628579999998,1.0284000000000002,1.8514775,1,0,0,0,0.0,0
0,KLaEuWO6,ABCDE6,155.6966930281598,6.503693993535528,15.569669302815978,-8.640647519000002,0.0421000000000004,5.23037456,1,0,1,1,6.9573465,1
1,KLaEuWO6,ABCDE6,627.7440674752778,6.452334317284275,15.693601686881944,-8.712258305750002,0.0016999999999995,5.21680745,1,0,1,1,27.8461123,1
0,KSrNdFeO6,ABCDE6,145.33026444668488,4.830919030856467,14.533026444668488,-6.7690221710000005,0.0,1.44716143,0,1,1,1,3.9999997,1
0,La3PbC,ABC3,143.80930043641396,7.342931273989079,28.76186008728279,-5.978348818,0.0,7.75401348,0,1,0,0,0.1915083,0
5,La3TaCo2O9,AB2C3D9,784.9403484416775,7.273293105667647,13.082339140694623,-8.819252038666667,1.9036,6.661025,1,0,1,1,24.0029329,1
5,LaCoO3,ABC3,243.1968758343009,6.714259250947069,12.159843791715044,-7.9646670505,0.0,6.05018269,0,1,1,2,9.7e-06,1
1,LaCoO3,ABC3,236.98698979728343,6.890196270979421,11.849349489864172,-7.935100783499999,0.973,6.04377958,0,0,0,0,0.0005337,0
6,LaCoO3,ABC3,239.43160537909029,6.819846823423928,11.971580268954517,-7.947710977,0.0,6.09487469,0,1,1,3,3.9777358,1
6,LaCoO3,ABC3,237.87742729827065,6.8644044620695785,11.893871364913531,-7.9521576865,0.6738999999999997,6.57653901,0,0,1,3,4.0067708,1
3,LaCoO3,ABC3,118.07297697836468,6.914735764099035,11.807297697836468,-7.982587506,0.9497,5.95606719,0,0,1,1,3.9987316,0
5,LaCoO3,ABC3,113.59993529183484,7.187006177323267,11.359993529183482,-7.943823356,1.104,5.76446862,0,0,1,1,4.0066067,0
6,LaCoO3,ABC3,113.2063665593236,7.211992235949901,11.32063665593236,-7.9711760055,0.0,6.23357952,0,1,1,1,3.9748815,1
0,LaCoO3,ABC3,87.87961684788989,4.64523780354616,17.57592336957798,-6.552312288,0.0,2.0005471,0,1,1,1,2.6032421,1
5,LaCoO3,ABC3,680.5994949910478,1.199594537895858,68.05994949910477,-5.067580595,0.0,-1.55857269,0,1,1,1,5.220665,1
3,LaCoO3,ABC3,222.25359956685824,7.346953554651772,11.112679978342912,-7.979271120999999,1.0014000000000003,6.11993258,0,0,0,0,0.0,0
0,LaCoO3,ABC3,55.60374124701541,7.341623228722615,11.120748249403082,-7.906038759999999,0.4388000000000005,7.08585121,0,0,0,0,3.13e-05,0
1,LaCoO3,ABC3,119.41139253008176,6.837232356035579,11.941139253008178,-7.927442259999999,0.9398,5.79741109,0,0,0,0,0.0003899,1
0,LaNiO3,ABC3,57.378419163664574,7.10761180460951,11.475683832732916,-7.548532023999999,0.0,7.13995155,0,1,1,1,0.9977953,1
1,LaNiO3,ABC3,230.37032604144088,7.0811816154504585,11.518516302072044,-7.540139836,0.0,7.21144241,0,1,1,1,3.9981224,1
3,LaNiO3,ABC3,112.43959122238896,7.254091284819418,11.243959122238897,-7.58371008,0.0,7.24925356,0,1,1,1,1.999905,0
6,LaNiO3,ABC3,232.95169096396123,7.0027142140914895,11.64758454819806,-7.5638215065,0.3559999999999998,6.77618883,0,0,1,2,0.0001582,1
1,LaPdO3,ABC3,259.89702324528884,7.496436967402867,12.994851162264442,-7.354187217000001,0.0,6.02676257,0,1,0,0,0.019214,0
6,Na3GdTi2Nb2O12,AB2C2D3E12,238.1305512121848,4.879579421175293,11.906527560609238,-8.796801812,2.4715,1.90363862,0,0,1,1,7.0017817,1
1,Na3GdTi2Nb2O12,AB2C2D3E12,479.59871098686256,4.845621602514839,11.989967774671564,-8.80204075875,2.0309,3.91386864,0,0,1,1,14.0080976,1
1,Na3NdTi2Nb2O12,AB2C2D3E12,485.63622720222565,4.696423294611029,12.140905680055642,-8.336597245250001,2.5085,4.4162543,0,0,0,0,0.0033387,1
6,Na3NdTi2Nb2O12,AB2C2D3E12,242.2972800721908,4.7065185574101625,12.114864003609538,-8.3283822145,2.4741,4.43603722,0,0,0,0,0.0031215,1
0,NaLaGdSbO6,ABCDE6,147.31331715065207,6.052040400626296,14.731331715065206,-8.223242822,2.2363000000000004,4.03449638,0,0,1,1,6.9999998,1
0,NaPrHfNbO6,ABCDE6,135.80441601992533,6.496314018807003,13.580441601992533,-8.806244279000001,0.0,5.56169535,0,1,0,0,0.0003498,1
0,NaSr2MnO6,ABC2D6,134.1627127575334,4.321624142458144,13.41627127575334,-6.38591822,0.0,1.46639683,0,1,1,3,2e-07,1
0,NaSrDyWO6,ABCDE6,144.7652686159705,6.342603613384668,14.476526861597051,-7.938322048000001,2.8974,1.74543116,1,0,0,0,0.0,1
1,NaVF3,ABC3,240.0279752499301,3.6230532346280415,12.001398762496509,-6.22392806,2.0207,4.38679154,1,0,1,1,11.9999996,1
0,NaVF3,ABC3,72.39893494667842,3.0029244655703904,14.479786989335684,-6.132578152000001,0.6978,2.67503328,0,0,1,1,3.0002155,0
0,NbTlO3,ABC3,69.35312692633802,8.267313088456405,13.870625385267603,-7.82580354,0.1116000000000001,4.63328399,1,0,0,0,0.000501,1
6,NbTlO3,ABC3,622.4098078179816,7.369601272493677,15.56024519544954,-7.91647763725,0.7458,2.51229806,0,0,0,0,0.0,1
5,NbTlO3,ABC3,621.9806468162132,7.374686230491849,15.54951617040533,-7.916380119999999,0.9465000000000005,2.47448908,0,0,0,0,0.0,1
5,Pr2MgPtO6,ABC2D6,253.9141122356426,7.811106552679921,12.69570561178213,-7.538170298999999,2.0522,6.16001038,1,0,0,0,0.0007428,1
0,Rb2EuCuCl6,ABC2D6,289.57479983548774,3.4358465089156045,28.95747998354877,-4.800402825,0.0,1.33508813,0,1,1,1,6.484153,1
0,Rb2NaScBr6,ABC2D6,347.13504428444685,3.436051764146196,34.713504428444686,-3.998763002,3.1115,-0.76100258,0,0,0,0,0.0009806,1
0,Rb2NaVCl6,ABC2D6,275.4736264464741,2.75829509171592,27.54736264464741,-4.373411532,0.0,1.18045762,0,1,1,1,2.0019501,1
0,Rb2YAgF6,ABC2D6,199.54470449888,4.008534254513443,19.954470449888,-5.466504282,2.8977,-0.30861457,0,0,0,0,0.0009839,1
0,Rb3RuF6,AB3C6,192.60220411107704,4.064772227728692,19.260220411107703,-4.94838375,0.0,1.08680042,0,1,1,1,1.0,1
6,Rb3RuF6,AB3C6,331.83335737852707,2.3592688102691013,33.18333573785271,-4.913620997,0.2794,-0.52645659,0,0,1,1,0.9989706,1
6,Rb3RuF6,AB3C6,322.6402590275434,2.426492256824048,32.26402590275434,-4.914535997,1.8235,-0.84990614,0,0,1,1,0.9981488,1
0,RbCdF3,ABC3,86.64313367399816,4.884729257302883,17.328626734799634,-4.23332982,3.1745,-1.86367532,0,0,0,0,0.0,0
3,RbSnCl3,ABC3,351.0235235553608,2.938028100191553,35.10235235553608,-3.88993258,2.3264,0.93858553,1,0,0,0,0.0006462,1
0,ScCoO3,ABC3,49.10300326279377,5.136443602936916,9.820600652558754,-7.702065131999999,0.7859999999999996,4.85593297,0,0,0,0,0.0005578,1
5,ScCoO3,ABC3,202.46357062059715,4.9829172965995125,10.123178531029858,-8.1920974155,0.8961999999999994,4.00969535,0,0,1,3,3.9999997,1
1,ScCoO3,ABC3,207.5436412174167,4.860949832328608,10.377182060870837,-8.191829626499999,0.0,4.51679694,0,1,1,2,4.1e-06,1
1,SmTmO3,ABC3,288.6300180537114,8.452390361659015,14.43150090268557,-8.733400844,4.6315,1.86798034,1,0,0,0,0.0019637,1
0,Sr2DyReO6,ABC2D6,145.55345808467467,7.072592079412918,14.555345808467468,-8.013249489,0.0,4.64455113,0,1,0,0,0.0919374,0
5,Sr2GdRuO6,ABC2D6,278.011893467992,6.3259818074603125,13.9005946733996,-8.470607493,0.2536999999999998,3.03869703,0,0,1,1,19.998135,0
5,Sr2GdRuO6,ABC2D6,139.09460786441048,6.321949525356484,13.909460786441048,-8.463304338,0.0,3.15768776,0,1,1,3,3.999577,0
2,Sr2GdRuO6,ABC2D6,143.75190495206726,6.117129998807784,14.375190495206729,-8.456246577,0.0,3.57894043,0,1,1,3,4.0006794,0
0,Sr2HfTiO6,ABC2D6,132.13159190988208,6.253411981487856,13.213159190988208,-8.752828999,2.4253,2.84965861,1,0,0,0,0.0,1
0,Sr2TbZrO6,ABC2D6,160.50084857485737,5.394248157135078,16.050084857485736,-7.931736089999999,0.0,1.40019842,0,1,0,0,1.0,1
0,Sr2TbZrO6,ABC2D6,624.0656932864969,5.549296594620379,15.601642332162422,-8.0001512875,0.0,1.3140047,0,1,0,0,4.0000006,1
0,Sr2YbUO6,ABC2D6,159.7122775281354,7.093973238244203,15.971227752813538,-8.105775772,2.1809000000000003,2.76281641,0,0,0,0,9.7e-06,1
5,Sr4Nb2O9,A2B4C9,941.8464268984928,4.797570837590172,15.697440448308212,-7.969983338,3.0104000000000006,1.74199724,0,0,0,0,0.0005109,1
1,Sr4Nb2O9,A2B4C9,470.3043076785274,4.803884290876352,15.676810255950912,-7.973334719333334,2.7425999999999995,1.75438793,1,0,0,0,0.0045625,1
6,Sr4Nb2O9,A2B4C9,442.4602717711825,5.106192848782461,14.748675725706082,-7.977461867000001,1.5023000000000004,4.06885273,0,0,0,0,0.0002449,1
6,Sr4Nb2O9,A2B4C9,496.3043297729823,4.552221973605975,16.543477659099413,-7.975303880333334,3.25,1.4987757,0,0,0,0,0.0011435,1
6,Sr4Nb2O9,A2B4C9,485.2145683943498,4.65626471823525,16.173818946478328,-8.051642446,3.5667,1.0775099,0,0,0,0,4.44e-05,1
0,SrCaSmFeO6,ABCDE6,129.45395130205767,5.514429967009845,12.945395130205767,-7.194470233,0.7272000000000003,2.88592675,0,0,1,1,3.000001,1
0,SrCaSmFeO6,ABCDE6,137.8161380877724,5.179834221978079,13.78161380877724,-7.223373286,0.2989000000000001,2.42681495,0,0,1,1,3.0000005,1
0,SrEuHfSbO6,ABCDE6,146.4524748243164,7.2093095060255,14.64524748243164,-8.555382538,0.0,5.92057793,0,1,1,1,6.6007213,1