Shape,formula_pretty,formula_anonymous,volume,density,density_atomic,energy_per_atom,band_gap,efermi,is_gap_direct,is_metal,is_magnetic,ordering,total_magnetization,theoretical
2,Ba2LuIrO6,ABC2D6,290.98647429139163,8.421029526303426,14.549323714569582,-7.503409994,0.0,3.68527031,0,1,1,1,3.999508,1
5,Ba2TaMnO6,ABC2D6,557.1194947080969,7.23131947484412,13.927987367702425,-8.5253729185,1.1315,3.85142669,0,0,1,1,16.0004006,1
1,Ba2TaMnO6,ABC2D6,557.0139631058896,7.23268951721433,13.92534907764724,-8.52630191,1.1822999999999997,2.70671393,0,0,1,1,16.0003823,1
0,Ba2TaMnO6,ABC2D6,138.8875247347746,7.251747519425103,13.888752473477458,-8.50451834,0.0,3.20504078,0,1,1,1,4.0000375,1
2,Ba2TaMnO6,ABC2D6,557.4106788280999,7.227541927197976,13.935266970702497,-8.5268908955,1.1694,2.63933247,0,0,1,2,8.5e-06,1
5,Ba2NbVO6,ABC2D6,277.21777229379177,6.163706508203827,13.860888614689587,-8.3657339,0.0,4.54097068,0,1,1,3,0.1300782,1
0,Ba2NbVO6,ABC2D6,555.9031753755852,6.147433808495763,13.89757938438963,-8.390504425,0.0,4.04535521,0,1,1,2,0.0002321,1
2,Ba4Ti5PbO15,AB4C5D15,325.221843567783,6.310002471912172,13.00887374271132,-8.322241904,1.7552000000000003,5.12442965,0,0,0,0,0.0090918,1
0,BaAuO3,ABC3,74.70777290092101,8.49724724234547,14.941554580184205,-5.472031942,0.0,2.25288076,0,1,0,0,0.0004405,1
1,Ba2La3Ti2Cr3O15,A2B2C3D3E15,625.1456084786237,6.2851172362678165,12.502912169572474,-8.7787021562,1.4871999999999996,5.74863521,0,0,1,3,0.00067,1
5,Ba2TbMgBiO6,ABCD2E6,203.9268572138171,6.211838691939459,18.5388052012561,-6.639769180909091,2.5609,2.59949765,0,0,0,0,0.0,1
5,Ba2TbMgBiO6,ABCD2E6,190.59862569311173,6.646221804379901,17.327147790282883,-6.56299466,1.8091000000000004,3.37785006,0,0,0,0,0.0,1
0,AcSiO3,ABC3,62.5790478372491,8.042345508493089,12.51580956744982,-7.746321593999999,0.0,10.58456163,0,1,0,0,0.000274,1
0,Ba2ScNbO6,ABC2D6,144.7173187617847,5.834859283966461,14.47173187617847,-8.472857685,2.5719,2.56760146,1,0,0,0,0.0001505,1
0,Ba2TaInO6,ABC2D6,148.17176644031986,7.468428663189091,14.817176644031983,-7.89024051,3.9459,3.11506816,0,0,0,0,9.2e-06,0
2,Ba2EuTaO6,ABC2D6,160.33470637735425,7.286586155442499,16.033470637735427,-8.90078028,0.0,2.95648547,0,1,1,1,6.0,0
0,Ba2TbReO6,ABC2D6,153.11395139506868,7.762749303664444,15.311395139506867,-8.093425936,0.0,4.49542659,0,1,1,1,1.9995853,0
0,Ba2YbPaO6,ABC2D6,171.46153842501946,7.502926112052025,17.146153842501946,-7.911570434,0.0,2.48497998,0,1,1,1,1.0001538,1
5,Ba3MgMnNb2O9,ABC2D3E9,239.1202585905636,5.701544197651635,14.945016161910225,-7.8376497375,0.0,5.35153843,0,1,1,3,4.2378512,1
5,Ba3MgMnNb2O9,ABC2D3E9,242.9561347351477,5.611526230421026,15.184758420946734,-7.821655099375,0.0,5.25376019,0,1,1,3,3.2596365,1
0,Ba3PbO,ABC3,168.36538573045777,6.264600434124797,33.67307714609156,-4.3758941060000005,0.0,3.69506247,0,1,0,0,2.5e-06,0
3,Ba4Zr(RuO4)3,AB3C4D12,292.3372954011922,6.451219308535228,14.61686477005961,-7.731306427,0.0,3.91244893,0,1,1,1,3.9801299,0
6,Ba10Ce(Bi3O10)3,AB9C10D30,865.631223867442,7.431855882637052,17.31262447734884,-6.54158726,0.0,4.06627559,0,1,0,0,0.0006753,1
0,Ba2ErRuO6,ABC2D6,148.6889622359816,7.136039155136842,14.86889622359816,-7.602358978,0.0716000000000001,3.15684303,1,0,1,1,3.0008054,0
1,Ba2LuMgRuO6,ABCD2E6,161.94892296083188,6.880003109753132,14.722629360075626,-7.002459851818182,0.0,4.61892967,0,1,1,1,1.0000226,1
5,Ba2LuMgRuO6,ABCD2E6,191.58149465078367,5.815849258419679,17.416499513707606,-7.118427985454545,0.2706999999999997,3.1541673,0,0,1,1,1.0,1
3,Ba2LuMgRuO6,ABCD2E6,167.62864671308515,6.64688951106779,15.23896788300774,-6.930227998181818,0.0,4.44835869,0,1,1,1,1.0,1
5,Ba2TbWO6,ABC2D6,156.3362788056158,7.577605995571289,15.63362788056158,-8.252879218,1.6795,3.7181818,0,0,1,1,0.9999865,1
0,Ba2TbWO6,ABC2D6,625.3148569818885,7.577972666893157,15.632871424547211,-8.245653739000002,1.7819000000000005,3.5595362,0,0,1,1,4.0000002,1
0,Ba2TbWO6,ABC2D6,155.85378958364927,7.601064605278111,15.585378958364927,-8.183895555000001,0.0,4.98047645,0,1,1,1,1.0,1
4,Ba3FeRu2O9,AB2C3D9,413.6959525228812,6.534332118699755,13.78986508409604,-7.396520526999999,0.0,3.84682616,0,1,1,1,16.0076931,1
4,Ba3FeRu2O9,AB2C3D9,414.151115118356,6.527150721721043,13.805037170611865,-7.380923997666668,0.0,3.87965805,0,1,1,1,14.6223137,1
3,Ba3In2MoO9,AB2C3D9,225.01230466262345,6.505648094305731,15.00082031084156,-6.963793302,1.8273,3.68505208,0,0,0,0,0.0007345,1
1,Ag3SBr,ABC3,233.82701370779407,6.186513420416596,23.38270137077941,-3.196363589,0.3976999999999999,1.67896818,0,0,0,0,0.0005966,1
1,Ag3SBr,ABC3,484.8055176451492,5.967646430204268,24.240275882257457,-3.1663475685,0.2964,1.4129369,0,0,0,0,0.0033129,0
5,Ag3SBr,ABC3,118.09093879361744,6.124830461748297,23.618187758723487,-3.200961334,0.3987,1.40281016,0,0,0,0,4.85e-05,1
0,Ba2GdPaO6,ABC2D6,177.974035828973,7.081051660878934,17.7974035828973,-9.417724719,3.1597,6.14111561,0,0,1,1,6.9999992,1
0,Ba2HoPaO6,ABC2D6,173.12081858951132,7.353227784940656,17.31208185895113,-8.51873044,3.4556,6.21590053,0,0,0,0,1.5e-05,1
0,Ba2YWO6,ABC2D6,619.8072903524679,6.894947026656483,15.4951822588117,-8.42614422475,1.7928000000000002,3.57952954,0,0,1,1,4.0000002,1
4,Ba3CoIr2O9,AB2C3D9,429.0469567315732,7.7355064567487135,14.301565224385772,-7.062864081666667,0.0,3.80381028,0,1,1,1,13.9910127,1
5,Ba2SrWO6,ABC2D6,165.22527617156834,6.453306836436874,16.522527617156832,-7.785776857,3.2504,1.88899355,0,0,0,0,3.8e-05,0
0,Ba2SrWO6,ABC2D6,166.23314674775472,6.414180475618976,16.62331467477547,-7.761117367,3.1754,1.93022957,0,0,0,0,0.0,1
3,Ba2SrWO6,ABC2D6,166.34065979923568,6.410034717651468,16.63406597992357,-7.784819741,3.3505000000000003,1.81709377,1,0,0,0,0.0,0
0,Ba2SrWO6,ABC2D6,664.1782306320799,6.421465534969025,16.604455765801998,-7.77206830275,3.2199,1.87092561,1,0,0,0,0.0,1
3,Ba3CaRu2O9,AB2C3D9,219.78945850752817,6.030460534869988,14.652630567168544,-7.184912796666667,0.0,3.56412041,0,1,1,1,5.9413306,0
4,Ba3CaRu2O9,AB2C3D9,461.3159442492377,5.74630758825017,15.377198141641257,-7.200062215666667,0.0,3.36657699,0,1,1,1,12.0009032,0
4,Ba3CaRu2O9,AB2C3D9,461.1044697842012,5.748942993896376,15.370148992806708,-7.200440479,0.0,3.37780867,0,1,1,1,12.0024827,0
4,Ba3NiSb2O9,AB2C3D9,869.2113586848934,6.557927927598557,14.486855978081556,-6.700008979166667,0.0,5.08366976,0,1,1,2,8.53e-05,0
4,Ba3NiSb2O9,AB2C3D9,888.843766252617,6.413079171537437,14.81406277087695,-6.713783131166667,0.0,4.76899833,0,1,1,2,0.0,0
0,Ba2YNbO6,ABC2D6,157.07020714159697,5.8406097289002,15.707020714159697,-8.458305763,2.8514,2.06677558,1,0,0,0,0.0,0
0,Ba2YNbO6,ABC2D6,624.8341409844919,5.872827489907278,15.620853524612295,-8.4542154435,2.9072000000000005,2.03633064,1,0,0,0,0.0,1
6,Ba10Pr5Nb4SnO30,AB4C5D10E30,832.4485832285939,6.080293753836911,16.648971664571878,-7.9625173566,0.0,1.87065734,0,1,0,0,0.0085471,1
1,Ba2LuMgNbO6,ABCD2E6,170.11072428109972,6.470215727481359,15.464611298281794,-7.362874662727273,0.0,5.41871545,0,1,1,1,1.6615297,1
3,Ba2LuMgNbO6,ABCD2E6,175.41664951463935,6.274507503718806,15.946968137694489,-7.366208820909091,0.0,5.08530727,0,1,0,0,1.9973678,1
5,Ba2MnRuO6,ABC2D6,426.4271245455228,6.15254193979361,14.21423748485076,-7.513347739,0.0,3.30837144,0,1,1,1,20.9979188,1
0,Ba2CeCrO6,ABC2D6,149.9136175317249,6.233517220473483,14.99136175317249,-7.940185837,0.0,3.19060571,0,1,1,1,1.9999998,1
0,Ba2PaInO6,ABC2D6,166.13364753644646,7.161603720673681,16.613364753644646,-7.845556122,3.3095000000000003,6.99483545,0,0,0,0,2.57e-05,1
3,Ba3ZnIrRuO9,ABCD3E9,425.832051947954,7.133553794091407,14.194401731598466,-6.8232190930000005,0.0,3.62083696,0,1,1,3,2.0006801,1
3,Ba6Y2Ru3PtO18,AB2C3D6E18,456.4110021213638,6.505404825811294,15.213700070712129,-7.491436097666667,0.0,3.59297061,0,1,1,1,6.0001067,1
3,Ba3NiIrRuO9,ABCD3E9,419.3460834119373,7.19070223089605,13.978202780397911,-7.055057065000001,0.0,3.88892799,0,1,1,3,7.54369,1
0,LiSc(TlCl3)2,ABC2D6,261.4313384908801,4.277131861302021,26.14313384908801,-4.403817337,3.7703,0.60316887,1,0,0,0,0.0063864,1
0,ZnNF3,ABC3,63.814802922926106,3.54957837564461,12.76296058458522,-3.637168648,0.0,-2.34447783,0,1,1,1,2.4579736,1
0,Ba2InSbO6,ABC2D6,147.91324889979737,6.817012593862324,14.791324889979736,-6.577128483,0.5239999999999996,4.01500058,1,0,0,0,3.72e-05,1
0,Ba2YTaO6,ABC2D6,155.9613726667593,6.819522757447047,15.59613726667593,-8.756020121999999,3.362,2.20922855,1,0,0,0,0.0,0
2,Ba2YTaO6,ABC2D6,155.50834731730168,6.839389322384703,15.550834731730168,-8.75761453,3.4639,2.08578723,0,0,0,0,0.0,0
3,Ba3MgTaNbO9,ABCD3E9,213.2519062216824,6.650933763286161,14.21679374811216,-8.265518779333334,2.8443,5.21274223,0,0,0,0,0.0011023,1
6,Ba3SrSb2O9,AB2C3D9,510.1977681212476,5.774584690226326,17.006592270708254,-6.739952722666668,3.1456,2.435466,1,0,0,0,0.0008476,0
0,Ba2CdOsO6,ABC2D6,150.60559245646297,7.423540219656888,15.060559245646298,-6.794456515,0.0,3.73340721,0,1,1,1,1.9999981,1
0,Ba2YIrO6,ABC2D6,150.9240161972271,7.171124725275718,15.092401619722713,-7.648918888999999,0.0,3.62943573,0,1,1,1,2.0,0
0,BaLaCrMoO6,ABCDE6,132.7231067052171,6.507941798561474,13.27231067052171,-8.429056058,0.0,6.18096498,0,1,1,1,4.995957,1
2,Ba4CaTi5O15,AB4C5D15,322.0616628256725,5.510243011770096,12.8824665130269,-8.4121194556,1.7146999999999997,4.76865298,0,0,0,0,0.0172462,1
6,BaCeEuWO6,ABCDE6,312.0158698085391,7.549144049313218,15.600793490426955,-9.165251766,0.0570000000000003,4.94156457,0,0,1,1,17.9279456,1
1,BaCeEuWO6,ABCDE6,682.5011224999954,6.902414279491346,17.062528062499887,-4.23837642125,0.0,3.74896166,0,1,1,1,16.8600689,1
0,BaCeEuWO6,ABCDE6,158.0241409967401,7.452825663216267,15.80241409967401,-9.050873684,0.0,5.17801962,0,1,1,1,8.9999999,1
0,BaEuInBiO6,ABCDE6,155.73668019346212,7.560612381159159,15.573668019346211,-7.108285366,0.0,4.43234734,0,1,1,1,6.8181389,1
6,BaEuInBiO6,ABCDE6,313.2927272603634,7.516706070822874,15.66463636301817,-7.1856283905,0.0,4.33246361,0,1,1,1,13.3746256,1
0,BaCdO3,ABC3,79.65491918762994,6.206805514125855,15.93098383752599,-5.182268728,0.0,1.0511327,0,1,0,0,0.4612154,1
0,BaEuHfNbO6,ABCDE6,143.0072487751778,7.6251314561463825,14.30072487751778,-9.608404628,0.0,5.64175667,0,1,1,3,6.3471057,1
2,BaSrCe2O6,ABC2D6,177.12090424902897,5.636123199638388,17.712090424902897,-8.014946609,2.2856,3.03162737,0,0,0,0,4.3e-06,1
5,BaSrCe2O6,ABC2D6,338.19322636983514,5.903579136071792,16.909661318491757,-8.107839551,2.1796999999999995,2.82485535,1,0,0,0,4e-07,1
1,CaCoO3,ABC3,214.852583269424,4.544787683536706,10.742629163471198,-6.772877062000001,0.0,2.58835756,0,1,1,1,4.0023788,1
5,CaCoO3,ABC3,97.80442736496283,2.495948804483074,19.560885472992567,-6.354939556,0.0,-0.70499731,0,1,1,1,3.000326,1
0,CaEuYNbO6,ABCDE6,148.43279750480073,5.256286613855592,14.843279750480074,-9.15233637,0.2846999999999999,4.61005804,1,0,1,1,7.0000002,1
6,CaLa2FeO6,ABC2D6,551.4621099581432,5.657727457623548,13.78655274895358,-8.01020145925,0.5023999999999997,5.51542703,0,0,1,2,0.0003042,1
6,CaLa2FeO6,ABC2D6,551.4326749484233,5.6580294623292415,13.785816873710582,-8.012612681250001,0.5577000000000005,5.04517985,0,0,1,2,6.61e-05,1
3,CaLa2FeO6,ABC2D6,132.7167799731302,5.877218995934202,13.27167799731302,-7.979145001000001,1.7183000000000002,5.32129787,0,0,1,1,4.0000101,1
0,CaNdHfCrO6,ABCDE6,127.0811240750919,6.67453575611861,12.70811240750919,-8.912170921,2.6485000000000003,3.89924671,0,0,1,1,3.0000005,1
5,CaPr3(CoO3)4,AB3C4D12,228.33293839297107,6.476306499256517,11.416646919648551,-7.563248145,0.0,4.14776549,0,1,1,1,12.8295645,1
0,Ce3AlC,ABC3,124.05038839781577,6.148730535293477,24.81007767956315,-6.38450763,0.0,7.12661914,0,1,1,1,2.5469901,0
0,Cs2KGdCl6,ABC2D6,370.7820642304217,3.022422253335421,37.078206423042175,-5.31996538,3.2188,-1.47475094,1,0,1,1,7.0000259,1
0,Cs2KPdF6,ABC2D6,202.8946996532461,4.299342259476947,20.28946996532461,-4.454912967,0.0,0.25171424,0,1,1,1,0.9996598,1
2,Cs2KPdF6,ABC2D6,202.93637966149117,4.298459240763782,20.293637966149117,-4.468444578,0.4386,0.10430951,0,0,1,1,1.0029199,1
0,Cs2KYBr6,ABC2D6,425.5042325983648,3.407833464924484,42.55042325983648,-4.108782649,4.2852,-1.26583333,1,0,0,0,0.0013007,1
0,Cs2LiBiCl6,ABC2D6,311.05306673149704,3.707283362898186,31.105306673149705,-3.833389476,3.6075,-0.00583333,0,0,0,0,0.0003432,1
0,Cs2NaMoCl6,ABC2D6,298.51087939544925,3.3235085747546864,29.851087939544925,-4.412519897,1.6371,1.61863388,1,0,1,1,2.9998754,1
0,Cs2NaNdBr6,ABC2D6,397.3772855752938,3.812967204268593,39.73772855752938,-3.927178393,4.1254,-0.96432942,1,0,0,0,0.0007224,1
0,Cs2RbAlCl6,ABC2D6,332.4640379567791,2.9517251400988536,33.246403795677914,-3.948100198,4.6551,-0.54871817,1,0,0,0,8.79e-05,1
0,Cs2RbTbCl6,ABC2D6,389.5742343376321,3.081416086160416,38.9574234337632,-4.352353249999999,4.923299999999999,-1.56818332,1,0,0,0,0.0005661,1
0,Cs2ScInI6,ABC2D6,488.5512997694577,4.034538838981296,48.855129976945776,-3.4487946270000003,1.9468,1.27338542,1,0,0,0,3.49e-05,1
0,Cs2TlBiBr6,ABC2D6,442.6765989694202,4.346058157573892,44.26765989694202,-3.339709651,1.7359000000000002,0.44,1,0,0,0,3e-06,1
0,Cs2TlInCl6,ABC2D6,356.55708452003284,3.7151475192249466,35.65570845200328,-3.6529785919999993,2.7015,0.1556318,0,0,0,0,0.0001389,1
1,CsIn3O5,AB3C5,566.7497897823531,6.532068853572471,15.743049716176476,-5.688943607500001,1.4700000000000002,3.82065468,0,0,0,0,0.0,0
0,Cu3PdN,ABC3,58.35368837448001,8.851798420613749,11.670737674896,-5.1306441,0.0,6.47446825,0,1,0,0,1.54e-05,1
0,Dy3SnC,ABC3,115.55110070330096,8.884204632258188,23.1102201406602,-6.039251322,0.0,4.84140759,0,1,0,0,3e-06,0
0,Er3AlN,ABC3,102.9313683395319,8.75615370928303,20.58627366790638,-6.17193694,0.0,4.16750679,0,1,0,0,6.1e-06,1
0,ErCuO3,ABC3,53.403026653845295,8.669239076915824,10.680605330769058,-6.906084548,0.0,4.99354127,0,1,0,0,0.000666,1
0,Eu2NiBiO6,ABC2D6,135.39520425158787,8.18768211193004,13.539520425158788,-8.041423329,0.0,4.06026564,0,1,1,1,15.0000008,1
0,EuZrFeBiO6,ABCDE6,134.2295527573515,7.472138950819242,13.422955275735152,-8.571504517,0.0,5.26032456,0,1,1,1,11.8377329,1
1,EuZrFeBiO6,ABCDE6,849.0907571502603,4.724968967395125,21.22726892875651,-7.516195482,0.0,0.23336048,0,1,1,3,7.4572599,1
1,FeSnO3,ABC3,233.75152028372537,6.323950878236458,11.687576014186268,-7.288322943500001,1.0275,5.22649761,0,0,1,2,1.05e-05,1
6,FeSnO3,ABC3,235.9626720863631,6.264690592443936,11.798133604318156,-7.323507478000001,0.9768,4.95057441,0,0,1,1,16.0231149,1
0,FeSnO3,ABC3,65.24543243440456,5.664124969489379,13.049086486880912,-6.546368164,0.0,4.46750816,0,1,1,1,3.9993122,1
0,K2CuBiBr6,ABC2D6,336.0551079005368,4.101980574355043,33.605510790053685,-3.343434288,0.8862000000000001,1.14953479,0,0,0,0,0.0004347,1
0,K2NaYBr6,ABC2D6,365.6816874965567,3.04023383136253,36.56816874965567,-4.063428088,4.0741,-1.14335787,1,0,0,0,0.000641,1
5,K3ClO,ABC3,135.98791905706403,2.06056159970862,27.197583811412805,-3.659546362,0.9897,0.96739253,1,0,0,0,0.0,1
1,K3ClO,ABC3,535.7181537332247,2.092230640911296,26.785907686661236,-3.6771526304999993,1.0785,0.94336762,1,0,0,0,0.0,0
1,K3ClO,ABC3,267.1443431287701,2.097828318215231,26.71443431287701,-3.670071289000001,1.0264,0.87931607,1,0,0,0,0.0,1
2,K3MgCu2F9,AB2C3D9,202.13012622404247,3.612038081197736,13.475341748269498,-4.773654456,0.0,0.6116704,0,1,1,1,1.9972324,1
1,K5Na3Ta2Nb6O24,A2B3C5D6E24,523.4509076015894,4.973457192802197,13.086272690039737,-8.20193508375,1.4727,2.93928503,1,0,0,0,0.0019482,1
0,KRb2AlBr6,ABC2D6,363.9649102067498,3.268654871076659,36.396491020674986,-3.468026048,3.283,-0.75425252,1,0,0,0,0.0019144,1
0,KSrTbSbO6,ABCDE6,151.79173410211774,5.506989257998937,15.179173410211774,-6.774775636999999,0.0,2.04567714,0,1,0,0,1.0,1
2,KSrTbSbO6,ABCDE6,603.6627852996983,5.538956314747077,15.091569632492456,-6.785784447750001,0.0,1.98923335,0,1,0,0,3.9467046,1
0,KTeO3,ABC3,69.64928845122509,5.11867290592566,13.92985769024502,-5.462513868,0.0,4.56705472,0,1,0,0,0.0001793,1
5,KV5S8,AB5C8,236.62742269617863,3.861925553029556,16.90195876401276,-6.978368442857144,0.0,5.96867427,0,1,1,3,2.0040176,1
5,KV5S8,AB5C8,246.34618413724343,3.709566249050501,17.596156009803103,-6.973450272142857,0.0,5.54665217,0,1,1,3,4.7529333,0
2,La2MgO4,AB2C4,97.00109844031373,6.267411872199572,13.857299777187675,-8.019911387142857,2.4898,6.38188682,0,0,0,0,3.54e-05,1
1,La2MgO4,AB2C4,197.07404828479648,6.169719872021551,14.07671773462832,-8.036043245714286,3.112499999999999,6.10994835,1,0,0,0,0.0006645,1
5,LaAlO3,ABC3,569.581153201603,4.988433941703543,14.239528830040076,-8.37044092625,4.4777,4.53447622,0,0,0,0,0.0029857,1
6,LaAlO3,ABC3,421.87864927012674,5.051188230492036,14.062621642337556,-8.34491938,4.270499999999999,4.63126252,0,0,0,0,9.74e-05,1
1,LaAlO3,ABC3,108.7846540054093,6.529684685682409,10.878465400540929,-8.426660814,3.7121,7.8461354,0,0,0,0,2.09e-05,1
2,LaAlO3,ABC3,108.66760027192304,6.536718281427916,10.866760027192305,-8.426382429,3.5192999999999994,7.88388544,0,0,0,0,0.0,1
6,LaAlO3,ABC3,467.7644710119816,4.555686889341703,15.59214903373272,-8.396395141666668,4.276999999999999,3.49477423,0,0,0,0,0.0019876,1
3,LaAlO3,ABC3,108.69536345095824,6.535048660257443,10.869536345095826,-8.427286556,4.0189,7.67988623,0,0,0,0,0.0,0
1,LaAlO3,ABC3,442.599776648795,4.814707508494951,14.753325888293167,-8.427126325333335,4.4362,3.81967113,0,0,0,0,0.0,1
6,LaAlO3,ABC3,123.70700827112734,5.742031104167994,12.370700827112731,-8.199224974,3.378000000000001,6.55312942,0,0,0,0,5.25e-05,1
5,LaAlO3,ABC3,942.8090747140236,4.520509029965628,15.713484578567062,-8.391749496666668,4.403700000000001,3.45534929,0,0,0,0,0.0017025,1
6,LaAlO3,ABC3,426.7858281918373,4.99310972184221,14.226194273061244,-8.384799595333334,4.1704,4.5875697,1,0,0,0,0.0001536,1
5,LaAlO3,ABC3,830.9863204470903,5.128817203013931,13.849772007451504,-8.334391190333333,4.468500000000001,9.19862548,0,0,0,0,0.0005082,1
4,LaAlO3,ABC3,125.07172857582998,2.839688462711673,25.014345715165994,-5.52231379,0.0,1.739123,0,1,0,0,0.5109685,1
0,LaAlO3,ABC3,54.13665153348018,6.560522946797748,10.827330306696036,-8.420498052000001,3.4924,7.93942141,0,0,0,0,0.0,0
0,LuReO3,ABC3,61.92415282345703,10.972236067625172,12.384830564691406,-8.304095138,0.0,7.02099716,0,1,0,0,0.0152648,1
3,MgTi3Nb2(PbO3)6,AB2C3D6E18,391.3144097288055,7.998589437824392,13.043813657626847,-7.788071856333333,1.9826000000000008,4.93483916,0,0,0,0,0.0056378,1
1,MnBiO3,ABC3,249.33978286772785,8.309139738363701,12.46698914338639,-7.3876401055,0.0,5.30316891,0,1,1,1,15.9999979,0
1,MnBiO3,ABC3,1024.836271058061,8.086361330838724,12.810453388225762,-7.378506857374999,0.0,5.38410045,0,1,1,1,64.0001282,0
5,MnBiO3,ABC3,257.3938245834839,8.049140656477718,12.869691229174194,-7.383415411,0.0958000000000005,5.35945206,0,0,1,1,16.0045845,0
5,MnBiO3,ABC3,258.5904657881425,8.011892827783502,12.929523289407124,-7.385154106,1.4751000000000003,4.90077783,0,0,1,1,16.001728,0
5,MnBiO3,ABC3,554.7820297592973,7.468876016334211,13.869550743982431,-7.3154482555,0.7252999999999998,4.33406408,0,0,1,1,32.0013982,1
5,MnBiO3,ABC3,510.9941217546845,8.108896012607493,12.774853043867113,-7.387102695,1.9011,4.84233509,1,0,1,1,32.0037009,0
0,MoPbO3,ABC3,69.30224559771202,8.413561405503058,13.860449119542404,-7.563607447999999,0.0,6.62859752,0,1,1,1,2.0007218,1
0,Na2LiAlH6,ABC2D6,95.7421700452921,1.490700106754249,9.57421700452921,-3.183728049,2.6364,1.05741821,0,0,0,0,0.0,0
5,Na2LiAlH6,ABC2D6,192.2330742640187,1.484893935695795,9.611653713200935,-3.1876903704999995,2.8917,0.72957574,0,0,0,0,0.0,1
0,Na2LiMnF6,ABC2D6,121.58405649384488,3.0299115409747874,12.158405649384488,-5.396558792,0.0,0.69467051,0,1,1,1,3.9998013,1
0,NaCaZrSbO6,ABCDE6,134.03099898490973,4.609385324480098,13.403099898490971,-7.350542081,3.3831,3.15146978,0,0,0,0,0.0004537,1
0,NaEuZrSnO6,ABCDE6,140.23647139237593,5.694146049672639,14.023647139237593,-8.1137176,0.0,2.59055004,0,1,1,1,6.0004504,1
0,NaLaZrVO6,ABCDE6,128.63590488309055,5.164269721198209,12.863590488309054,-8.424069539,0.0,5.44832131,0,1,1,1,0.9999999,1
3,NaMgTi2BiO6,ABCD2E6,154.7801119683123,4.806371699718861,14.070919269846572,-7.383991778181818,1.1035000000000004,4.58928806,0,0,0,0,0.0,1