Shape,formula_pretty,formula_anonymous,volume,density,density_atomic,energy_per_atom,band_gap,efermi,is_gap_direct,is_metal,is_magnetic,ordering,total_magnetization,theoretical
0,Sr2CoSbO6,ABC2D6,511.17311850027335,5.872349078542671,12.779327962506834,-6.784633058500001,0.2016999999999997,3.65950806,0,0,1,2,3e-06,1
0,Sr2InBiO6,ABC2D6,151.55648700266326,6.519539684033151,15.155648700266326,-6.206222824999999,0.0,3.35356571,0,1,0,0,0.0,1
0,Sr2InBiO6,ABC2D6,599.3884678269878,6.593910856968468,14.984711695674696,-6.2743417555,0.6187,3.20256119,1,0,0,0,0.0,1
0,Sr2LuNbO6,ABC2D6,144.57358895376143,6.192091220495636,14.457358895376142,-8.245683974,2.8966000000000003,2.14742189,1,0,0,0,0.000247,1
5,Sr2LuNbO6,ABC2D6,283.7814994053796,6.309169926523834,14.18907497026898,-8.293347259499999,3.2094,4.84261241,0,0,0,0,0.0283442,0
5,Sr2LuRuO6,ABC2D6,273.3277803597959,6.649663342780214,13.666389017989797,-7.589882169499999,0.1147,3.12757098,0,0,1,1,5.9987003,0
6,Sr4Zn(IrO4)3,AB3C4D12,255.00637386089187,7.713387552979672,12.750318693044594,-6.7901264005,0.0,3.98237199,0,1,1,1,4.9544652,1
5,Sr5Ca3Fe7CoO24,AB3C5D7E24,466.561971300907,4.954859489328006,11.664049282522674,-7.16228605975,0.0,2.95115021,0,1,1,1,32.4583227,1
0,SrCaHfNbO6,ABCDE6,137.5675587126467,5.976100683888112,13.75675587126467,-8.730063926,0.0,5.91864451,0,1,0,0,0.1924221,1
6,SrLa2(CoO3)3,AB2C3D9,360.55019292062855,6.320915372777616,12.018339764020952,-7.563961017,0.0,5.18294788,0,1,1,3,0.0824901,1
5,SrLa2(CoO3)3,AB2C3D9,175.66402180242846,6.486835590196051,11.710934786828563,-7.525451892000001,0.0608000000000004,5.2807772,0,0,1,1,9.0163171,1
5,SrLa2(CoO3)3,AB2C3D9,350.12408586278394,6.50914161324821,11.670802862092795,-7.542012946333333,0.0,5.37335016,0,1,1,3,10.001068,1
5,SrLa2(CoO3)3,AB2C3D9,348.23240890027813,6.544500738133669,11.607746963342604,-7.562484526666666,0.0,5.59934179,0,1,1,3,0.05086,1
3,SrLa2(CoO3)3,AB2C3D9,345.2004060778189,6.6019831291165305,11.506680202593964,-7.543305007666667,0.0,5.7900821,0,1,1,1,14.001014,1
0,SrNdHfMnO6,ABCDE6,131.59900450817582,7.082409726113296,13.159900450817585,-8.723015039,0.0,4.7766163,0,1,1,1,4.0000008,1
1,SrSnO3,ABC3,133.32770579400238,6.335096060087697,13.332770579400238,-6.740627184,1.6118,4.03921413,0,0,0,0,0.0,0
1,SrSnO3,ABC3,266.2174999396318,6.345516909051056,13.31087499698159,-6.7465352295,1.7365,4.02610106,0,0,0,0,0.0,0
0,SrSnO3,ABC3,69.67305836625314,6.061480890045354,13.934611673250629,-6.698800456000001,0.9698000000000002,4.40264284,0,0,0,0,0.0,0
2,SrSnO3,ABC3,132.9109082147505,6.354962395647653,13.291090821475049,-6.735060865,1.5555000000000003,4.32014679,0,0,0,0,0.0,0
1,ZrCrAgS4,ABCD4,543.8545768471834,4.633022861736787,19.42337774454226,-6.4761041675,0.5740999999999996,4.15790001,1,0,1,1,12.0031463,1
1,ZrCrAgS4,ABCD4,582.7831204597381,4.32354781656251,20.81368287356208,-6.571008674285714,0.4681999999999999,3.52892786,1,0,1,1,11.9989892,1
5,ZrCrAgS4,ABCD4,285.0055494517237,4.420423905500111,20.35753924655169,-6.551987439285715,0.7933000000000003,4.42345686,0,0,1,1,6.0009342,1
1,ZrCrAgS4,ABCD4,546.3480237227551,4.611878470474356,19.512429418669825,-6.4746223671428575,0.5609999999999999,4.08770858,1,0,1,1,12.0140453,1
5,ZrCrAgS4,ABCD4,544.8903866142172,4.624215713640641,19.460370950507755,-6.464461499285714,0.6209999999999996,4.91721947,1,0,1,1,12.0002631,1
6,ZrCrAgS4,ABCD4,658.8743294573205,3.824235632413424,23.531226052047163,-6.364710800714286,0.0,2.90966162,0,1,1,1,12.0013464,1
6,ZrCrAgS4,ABCD4,652.6807240475132,3.860525667691944,23.31002585883976,-6.350583986071428,0.0001000000000002,2.95855869,0,0,1,1,12.0029119,1
5,ZrCrAgS4,ABCD4,284.4956569206057,4.428346490885725,20.321118351471835,-6.527931925,0.0,4.0537657,0,1,1,1,5.5976948,1
5,ZrCrAgS4,ABCD4,292.50402353671745,4.307104322065667,20.89314453833696,-6.553743545000001,0.5245999999999995,4.13142008,0,0,1,1,5.9999543,1
5,ZrCrAgS4,ABCD4,286.96536695364017,4.390234812551872,20.497526210974296,-6.555807022857144,0.6181000000000001,4.22297615,0,0,1,1,6.0002195,1
5,ZrCrAgS4,ABCD4,286.5315794155055,4.396881302111782,20.466541386821824,-6.550763309285714,0.7057000000000002,4.31094287,0,0,1,1,6.0007162,1
1,ZrCrAgS4,ABCD4,579.2246844281528,4.3501093025425615,20.68659587243403,-6.570591535714286,0.3765999999999994,4.0524949,1,0,1,1,11.9997395,1
1,ZrCrAgS4,ABCD4,587.2119533081035,4.290939027719576,20.97185547528941,-6.522219773928571,0.7773999999999996,3.41954936,0,0,1,1,12.0135403,1
6,ZrCrAgS4,ABCD4,663.3916157104254,3.7981949550189182,23.692557703943766,-6.359882864285715,0.0,2.86056771,0,1,1,1,12.0032036,1
6,ZrCrAgS4,ABCD4,1114.315380305953,4.522401346199431,19.89848893403488,-6.380978240178571,0.0,4.31311866,0,1,1,1,24.0024858,1
6,ZrCrAgS4,ABCD4,587.1898598877083,4.291100477237536,20.97106642456101,-6.532104691071429,0.7794999999999996,4.16893046,0,0,1,1,12.0061788,1
1,ZrCrAgS4,ABCD4,544.2031198540877,4.630055573126389,19.43582570907456,-6.4698163046428565,0.7975000000000003,4.16667463,0,0,1,1,12.007897,1
1,ZrCrAgS4,ABCD4,542.5831982724005,4.643878940623208,19.37797136687145,-6.469284275,0.4188999999999998,4.37655784,0,0,1,1,12.0037948,1
6,BaEuBiSbO6,ABCDE6,319.5125127508673,7.442538787823569,15.975625637543365,-7.4313115205,0.0,5.8537837,0,1,1,1,13.9359448,1
0,BaEuBiSbO6,ABCDE6,159.761134319388,7.442311546778744,15.9761134319388,-7.366104307,0.0944000000000002,6.02043432,1,0,1,1,6.9999998,1
0,BaNdEuBiO6,ABCDE6,171.6777973362544,7.143173974704654,17.16777973362544,-7.714439486000001,0.0,4.25081716,0,1,1,1,6.9987923,1
6,BaNdEuBiO6,ABCDE6,340.52219133593366,7.202610609052217,17.026109566796684,-7.829569913999999,0.0,3.53144662,0,1,1,1,13.7907559,1
1,BaSrPrZrO6,ABCDE6,673.8423810014237,5.45173621120045,16.846059525035592,-7.9489913475,0.0,1.36474003,0,1,1,1,4.0001017,1
0,BaSrPrZrO6,ABCDE6,172.0470179280669,5.338091519091215,17.20470179280669,-7.874498565000001,0.0,1.46037272,0,1,0,0,1.0,1
0,CaEuFeSbO6,ABCDE6,127.58361455991512,6.06048871927308,12.758361455991512,-7.907791936,0.0,6.26755756,0,1,1,1,11.6486485,1
1,CaNd2Mn3O9,AB2C3D9,708.4734281956097,5.975546651456558,11.807890469926829,-8.396120556333333,0.0,4.11088152,0,1,1,1,44.0428985,1
0,Ce3AlN,ABC3,118.3160019871586,6.474752646871416,23.663200397431723,-6.804772998,0.0,7.49830826,0,1,1,1,2.5442481,0
0,Cs2LiTlBr6,ABC2D6,352.1708128153168,4.510322461784112,35.21708128153168,-3.152427573,0.5505,-0.27291667,1,0,0,0,0.0002389,1
0,Cs2NdAuCl6,ABC2D6,336.11412341494344,4.04983308678137,33.61141234149434,-4.151568343999999,2.2148,0.6931025,0,0,0,0,0.0004548,1
0,Cs3AuBr6,AB3C6,434.6407787510252,4.107431093710564,43.46407787510252,-2.946304863,0.0,-0.2019514,0,1,1,1,1.9957075,1
0,ErBRh3,ABC3,71.9368583489622,11.23663194217241,14.38737166979244,-7.482302914,0.0,5.74681413,0,1,1,3,0.6594741,0
0,Gd3InN,ABC3,115.9483160404297,8.601054209479306,23.18966320808594,-11.68776736,0.0,4.58065029,0,1,1,1,21.888467,0
0,InAg3F6,AB3C6,174.20758183791366,5.265576788348592,17.420758183791367,-3.99410163,0.0,0.51078579,0,1,0,0,0.0004632,1
5,InAg3F6,AB3C6,322.83581494727275,5.682785842270163,16.141790747363636,-4.137491323,0.8030999999999999,0.06197924,1,0,0,0,5.47e-05,1
0,K2LiMnF6,ABC2D6,134.6880136946187,3.13232494509836,13.468801369461868,-5.453832936,0.0,0.09157051,0,1,1,1,3.9999623,1
0,K2NaTmCl6,ABC2D6,302.3817776968511,2.65152328246409,30.23817776968511,-4.344084629999999,4.9718,-1.22126767,1,0,0,0,0.0127099,1
0,KAuO3,ABC3,71.87610219949094,6.562651688367877,14.37522043989819,-4.400781534,0.0,0.83335796,0,1,1,1,1.3575593,1
0,KMoO3,ABC3,64.23163890078015,4.731924392171149,12.846327780156033,-7.406736621999999,0.0,3.4840778,0,1,1,1,1.0014023,1
0,KNiF3,ABC3,64.38821575917798,3.991875024933351,12.877643151835596,-5.166724965999999,0.0,1.41033415,0,1,1,1,2.0,0
2,KRb2PdF6,ABC2D6,192.8010832983313,3.707290414554568,19.280108329833126,-4.464199560999999,0.5057,0.10072714,0,0,1,1,0.9999163,1
0,KRb2PdF6,ABC2D6,192.29703437673064,3.717007962937845,19.229703437673063,-4.451228435,0.0,-0.25905908,0,1,1,1,0.9997861,1
0,KSmHfSnO6,ABCDE6,137.34160888360782,7.044630535150079,13.734160888360782,-7.89598192,3.2509,3.16695076,1,0,0,0,0.0,1
5,La3Nd(GaO3)4,AB3C4D12,241.27073850685343,7.10163184899555,12.063536925342673,-7.630014859000001,3.454,5.14295472,0,0,0,0,0.0002539,1
5,La3Nd(GaO3)4,AB3C4D12,242.68584086785728,7.060222197898659,12.134292043392865,-7.637765969999999,3.4201000000000006,8.41128813,0,0,0,0,2.58e-05,1
0,Li3CoF6,AB3C6,108.89117942394036,2.954544377263356,10.889117942394035,-5.027455323,2.9404000000000003,-1.29751961,1,0,0,0,0.000346,1
5,LiLa2ReO6,ABC2D6,255.54912029653772,7.368066773190458,12.777456014826887,-8.409434219000001,0.0,7.4027333,0,1,1,1,3.9972046,0
0,Lu3InC,ABC3,107.40838576530209,10.07577406552093,21.481677153060414,-5.68388206,0.0,4.28634854,0,1,0,0,9.5e-06,1
1,MnNF3,ABC3,257.5860831182479,3.2475079729074894,12.879304155912395,-5.7410479275,0.0,-0.86990516,0,1,1,1,28.0000026,1
2,MnNF3,ABC3,128.33476003985544,3.259104775575749,12.833476003985544,-5.741886318000001,0.0,-0.87982549,0,1,1,1,14.0000001,1
0,MnNF3,ABC3,63.19079464624045,3.309472777322836,12.638158929248087,-5.361810624,0.0,0.63153686,0,1,1,3,0.9984161,0
1,MnNF3,ABC3,255.38977736951253,3.275435952262908,12.769488868475626,-5.733183362,0.0,-0.02385853,0,1,1,1,28.000005,1
1,MnNF3,ABC3,127.73503520091803,3.2744064982670835,12.773503520091804,-5.740768627,0.0,-0.73976176,0,1,1,1,14.0000005,0
0,PrEuHfMnO6,ABCDE6,132.8276497455657,7.779607474193241,13.28276497455657,-9.583938408,0.0,4.85003055,0,1,1,1,10.9999999,1
0,Rb2GdAgCl6,ABC2D6,316.7407283071605,3.401239003793903,31.67407283071605,-5.169890318999999,2.128,-0.23591069,0,0,1,1,7.0,1
0,Rb2LiCeBr6,ABC2D6,359.66361272676545,3.681610732363101,35.966361272676544,-4.056017215,0.2925,1.96166667,0,0,1,1,0.999743,1
0,Rb2LiPrI6,ABC2D6,455.2301795914088,3.9402762873031607,45.52301795914088,-3.4032269479999995,2.9512,0.58041667,1,0,0,0,0.0012457,1
0,Rb2LiSmCl6,ABC2D6,296.6341103356505,3.028229779577775,29.66341103356505,-4.415971012,4.918699999999999,-0.94583333,1,0,0,0,6.25e-05,1
0,Rb2YTlF6,ABC2D6,229.56834053159795,4.182409800645718,22.956834053159795,-5.553364308,4.6661,-0.85255223,0,0,0,0,0.0027737,1
5,RbPbCl3,ABC3,186.76458044490604,3.547779715200581,37.35291608898121,-3.87638783,2.1948,0.79713052,1,0,0,0,0.0006274,1
1,RbPbCl3,ABC3,321.3275545873426,4.124138005352904,32.13275545873426,-3.914520416,3.263,0.15944176,0,0,0,0,0.0,1
0,RbPbCl3,ABC3,187.45133578838053,3.534781906107159,37.49026715767611,-3.876167596,2.1963,0.85996495,1,0,0,0,0.0023644,1
1,ScSb(PbO3)2,ABC2D6,137.40269009849902,8.183038088598023,13.740269009849902,-7.026373082000001,2.7561,5.36882973,0,0,0,0,9.5e-06,1
0,Sr2EuNbO6,ABC2D6,154.90750922391263,5.532433353429948,15.490750922391266,-8.486518424,0.0,2.57071835,0,1,1,1,6.0000001,1
0,Sr2EuNbO6,ABC2D6,604.3807951463845,5.672023185445908,15.109519878659611,-8.553363086000001,0.0,2.36166823,0,1,1,1,23.9999996,1
3,Sr3Ta2ZnO9,AB2C3D9,200.8179280477927,6.897562476196847,13.387861869852848,-8.198857544666668,3.4116000000000004,2.49706233,0,0,0,0,0.0001137,0
2,SrCaLaBiO6,ABCDE6,308.5427776896713,6.1523486314588185,15.427138884483565,-6.9658109375,2.0322,3.71592764,1,0,0,0,7.4e-06,1
5,SrCaLaBiO6,ABCDE6,308.31263481289983,6.156941110173823,15.415631740644992,-7.0623446605,2.0516,3.29494464,0,0,0,0,0.0,1
1,SrCaLaBiO6,ABCDE6,620.9188677178729,6.114366416477027,15.522971692946822,-6.96567254675,2.1151,3.50853014,0,0,0,0,0.0,1
0,SrCaLaBiO6,ABCDE6,155.77694011760096,6.092887479470623,15.577694011760096,-6.814445446000001,2.2594,3.79095538,1,0,0,0,0.0,1
6,SrLa3Cr4O12,AB3C4D12,241.9301519532636,6.206948847587906,12.096507597663178,-8.763899225500001,0.7477,6.30854038,0,0,1,3,1.0112352,1
5,SrLa3Cr4O12,AB3C4D12,241.99633656676696,6.205251282590264,12.09981682833835,-8.751909814000001,0.0,5.62406174,0,1,1,3,0.0111695,1
0,SrLaTiFeO6,ABCDE6,246.34150235748143,5.746315467509045,12.317075117874072,-8.426108239,1.7674000000000003,5.05479605,0,0,1,2,0.0,1
1,SrLaTiFeO6,ABCDE6,169.41578788460376,4.177756993493446,16.941578788460376,-8.261090671,1.0835000000000004,2.12277502,0,0,1,1,5.0026381,1
0,SrNdCrSnO6,ABCDE6,128.33050773973335,6.451200451485222,12.833050773973335,-7.724503618,2.0901,4.64587944,1,0,1,1,3.0000006,1
0,SrSmEuNiO6,ABCDE6,135.74635661316876,6.662320260042077,13.574635661316876,-7.666813845,0.0,2.59556874,0,1,1,1,6.0034662,1
0,SrSmZrCrO6,ABCDE6,130.97207384877575,6.050170905972822,13.097207384877574,-8.658306005,2.4087,3.7030914,0,0,1,1,3.0000004,1
1,YErAl2O6,ABC2D6,206.85834870587465,6.520261961204459,10.342917435293732,-8.5622653225,5.6644000000000005,4.43724685,0,0,0,0,0.0010189,1
5,ZnSbO3,ABC3,246.05121608245983,6.348342089104972,12.302560804122992,-5.708569843499999,0.3548,6.18166092,0,0,0,0,0.000607,1
3,ZnSnO3,ABC3,117.57007878380284,6.556764826849906,11.757007878380284,-5.962064889,1.0809999999999995,4.17601123,1,0,0,0,0.0003536,0
0,ZnSnO3,ABC3,65.39671100186958,5.893869473325446,13.079342200373915,-5.29058385,0.0,3.56430081,0,1,0,0,0.0172689,1
1,ZnSnO3,ABC3,231.03061953050977,6.67339557696861,11.551530976525488,-5.9206463105,1.2205000000000004,4.20818543,0,0,0,0,0.0001366,1
3,ZnSnO3,ABC3,119.3966291288976,6.456458301074723,11.93966291288976,-5.948557964,1.3215,3.85349028,0,0,0,0,0.0001226,0
0,Cs2SbAuCl6,ABC2D6,316.8343487131502,4.178441712592339,31.68343487131502,-3.566690711,0.4038999999999997,1.978174,0,0,0,0,0.0005736,1
1,CaSmCrO4,ABCD4,180.10063347883388,5.65063874863552,12.864330962773847,-8.324910297142857,2.4963,3.65805336,1,0,1,1,5.9999926,1
5,CaYb3Mn4O12,AB3C4D12,211.93232387757467,7.607564151763753,10.596616193878734,-7.783295192999999,0.5647000000000002,2.92808435,0,0,1,1,12.0006388,1
0,Cs2AgBiCl6,ABC2D6,328.9658229255846,4.014871228898019,32.896582292558456,-3.667407475,1.8663,0.91825946,0,0,0,0,0.0,0
0,Cs2AgIrF6,ABC2D6,186.66352961120805,6.048198781239326,18.666352961120804,-4.667425831,1.3698,1.43543794,1,0,0,0,0.0009332,1
0,Cs2CeAgCl6,ABC2D6,337.5813121930144,3.5736675807662936,33.75813121930144,-4.350780738999999,2.9041,2.96553587,0,0,1,1,0.9989709,1
0,Cs2EuAgCl6,ABC2D6,323.3152998347618,3.79220364376327,32.33152998347618,-4.667826197999999,0.0,0.7226238,0,1,1,1,5.9998009,1
0,Cs2InBiCl6,ABC2D6,377.89833307800944,3.5255403783025447,37.78983330780095,-3.723984909,1.7612,1.36943616,1,0,0,0,0.0008099,1
0,Cs2InCuBr6,ABC2D6,326.9222699225167,4.691243768717036,32.69222699225167,-3.2747359850000004,0.0,1.36019195,0,1,0,0,0.0012125,1
0,Cs2YTlI6,ABC2D6,529.5581893235457,4.14078472705921,52.95581893235457,-3.529391982,3.0866,0.3934375,1,0,0,0,0.000926,1
2,FeAg3F6,AB3C6,172.6540862669964,4.745769107592107,17.26540862669964,-4.598113001,1.7972,-1.25236096,0,0,1,1,5.0006598,1
0,FeAg3F6,AB3C6,158.24288555676665,5.177966933695217,15.824288555676665,-4.539970767,0.0,0.23672155,0,1,1,1,4.9842119,1
1,GdGaO3,ABC3,232.60547911276728,7.85192888029128,11.630273955638364,-9.467354193,3.3962000000000003,2.62084567,0,0,1,1,28.0001128,0
1,GdVO3,ABC3,229.68430934192185,7.408655933518536,11.484215467096092,-10.853466169,0.0,4.61576546,0,1,1,3,21.9999991,0
1,HoBO3,ABC3,118.51798572341876,6.269566790805142,11.851798572341874,-8.692011009,4.5465,1.82271715,0,0,0,0,0.0,1
6,HoBO3,ABC3,620.0271110640851,7.190554227179876,10.33378518440142,-8.722134835333332,5.0472,2.75562229,0,0,0,0,0.0039543,1
3,HoBO3,ABC3,119.955862864517,6.19441525958512,11.9955862864517,-8.75474245,5.089799999999999,1.4755597,0,0,0,0,0.0,1
1,HoBO3,ABC3,321.8398383288317,6.926331102417453,10.727994610961057,-8.781244773,5.4365,2.04266163,0,0,0,0,0.0,1
6,HoBO3,ABC3,223.983121981949,6.634932318378414,11.19915609909745,-8.748231233999999,5.367,1.95497064,1,0,0,0,0.0,1
0,HoBO3,ABC3,41.8843783630594,8.870328944168055,8.37687567261188,-7.910179908000001,2.6416000000000004,5.83404344,0,0,0,0,0.0013728,1
0,K2InAuF6,ABC2D6,188.9313618605057,4.4294631786988985,18.89313618605057,-4.384832521,0.3609,0.67789544,0,0,0,0,0.000333,1
0,K2InGaI6,ABC2D6,442.9750267986698,3.839189406053528,44.29750267986698,-2.757783384,0.1559999999999999,1.58020833,0,0,0,0,0.0014242,1
5,K3Cr11S18,A3B11C18,609.9852851601255,3.4475310420802483,19.06204016125392,-6.8470724853125,0.2216000000000004,4.38096471,0,0,1,1,33.0000005,0
5,K3Cr11S18,A3B11C18,613.1322659212698,3.4298361425195925,19.16038331003968,-6.833987094375,0.2760999999999995,4.64102304,0,0,1,1,33.0457258,1
0,KBaLiZnF6,ABCDE6,138.45674557998515,4.350720842321493,13.845674557998516,-5.050690713,5.5617,4.51911979,1,0,0,0,0.0001141,1
3,KBaLiZnF6,ABCDE6,693.6458913428163,4.342177011880633,13.872917826856328,-5.0478766010000005,4.4943,0.38277217,0,0,0,0,5.46e-05,1
0,KEuAlBiO6,ABCDE6,128.72935855384276,6.746683218110808,12.872935855384275,-7.131171621,0.0,3.43999858,0,1,1,1,6.0239858,1
0,KEuHfZrO6,ABCDE6,143.86932575792824,6.426267828084352,14.386932575792825,-9.288853838,0.0,1.59743997,0,1,1,1,6.000085,1
0,KEuYWO6,ABCDE6,147.09529998597375,6.319558306921245,14.709529998597375,-8.961398200000001,0.3611000000000004,4.17446155,0,0,1,1,7.0000001,1
0,KPrDySbO6,ABCDE6,145.81488018214662,6.380264610566347,14.581488018214662,-7.264618315,3.232800000000001,2.93030388,1,0,0,0,0.0,1
0,KSrCeMnO6,ABCDE6,141.9420854336834,4.887354724692037,14.194208543368338,-7.366975328,0.0,2.20956359,0,1,1,3,2.0000005,1
0,KZr2BiO6,ABC2D6,146.8577910645595,5.953461308926987,14.68577910645595,-7.964809529,0.7410000000000001,2.49377788,0,0,0,0,0.0,1
0,LaPt3C,ABC3,85.57920512495559,14.284264548701186,17.11584102499112,-6.693554388,0.0,8.14183872,0,1,0,0,0.0481778,1
1,LaScS3,ABC3,458.30319977671337,4.058837585146462,22.91515998883567,-7.1151509410000005,1.6446000000000005,5.12157966,1,0,0,0,0.0,1
5,LaSm3(FeO3)4,AB3C4D12,244.07407256913305,6.839877196671634,12.203703628456651,-8.423692896999999,1.5064000000000002,5.74606303,1,0,1,1,20.0000271,1
0,Na2EuMnO6,ABC2D6,715.3517424215479,3.23938832785633,17.8837935605387,-6.62641411275,0.0,-0.78429988,0,1,1,3,27.1100299,1
0,Na2EuMnO6,ABC2D6,140.28897678286137,4.129515621706258,14.028897678286135,-6.924073648000001,0.0,0.49857508,0,1,1,3,6.0000005,1
1,NbAgO3,ABC3,137.02715410739583,6.029416907730857,13.702715410739582,-7.709486103000001,0.9227999999999998,2.01489177,1,0,0,0,0.0,1
1,NbAgO3,ABC3,514.8489876818318,6.418921738690091,12.871224692045796,-7.736745503749999,1.7362000000000002,1.95793245,0,0,0,0,6.03e-05,0
1,NbAgO3,ABC3,136.91213819505973,6.034482045823357,13.691213819505972,-7.705599766000001,0.8148999999999997,2.10031052,0,0,0,0,0.000501,1
1,NbAgO3,ABC3,254.284099930991,6.498195050477723,12.714204996549553,-7.725453274,0.9892,2.27035333,0,0,0,0,0.0001582,0
1,NbAgO3,ABC3,513.7503278083724,6.432648662768679,12.84375819520931,-7.73781684325,1.7878999999999998,1.99927946,0,0,0,0,0.002005,0
2,NbAgO3,ABC3,127.91798090285629,6.458777991663299,12.791798090285628,-7.722826699,1.0242999999999998,2.24970641,1,0,0,0,4.3e-06,1
0,NbAgO3,ABC3,65.1582457381741,6.339902420894476,13.03164914763482,-7.705405074,1.3336,2.01138766,0,0,0,0,2.86e-05,0
5,Nd4Ni3O10,A3B4C10,416.769451198214,7.2756879766283,12.25792503524159,-7.498062257352941,0.0,4.69093265,0,1,0,0,0.1046868,1
5,Nd4Ni3O10,A3B4C10,833.5388541378694,7.275688397861471,12.257924325556903,-7.716227591176469,0.0,4.09874944,0,1,1,1,16.0080491,0
0,NdEu2SbO6,ABC2D6,605.0275122324356,7.310720787556385,15.12568780581089,-8.85790404175,0.0007000000000001,6.19239875,1,0,1,1,56.0010787,1
0,NdEu2SbO6,ABC2D6,157.15119622139687,7.036515338530643,15.715119622139689,-8.792910224,0.3235999999999999,5.55417544,1,0,1,1,13.9999308,1
1,PrCoO3,ABC3,219.468020673114,7.500799709937002,10.9734010336557,-7.851972207999999,0.0,4.57067154,0,1,0,0,2e-07,0
0,PrCoO3,ABC3,55.69128310911385,7.389781550642455,11.13825662182277,-7.73563128,0.0,5.1488859,0,1,1,1,1.7351992,0
0,PrZn(BiO3)2,ABC2D6,603.571682775246,7.926434593988485,15.08929206938115,-6.15046407175,0.0,3.7761347,0,1,0,0,4.0,1
2,PrZn(BiO3)2,ABC2D6,147.25047975774285,8.122505736776706,14.725047975774284,-6.0808452840000005,0.0,3.75982759,0,1,0,0,0.8852862,1
0,PrZn(BiO3)2,ABC2D6,149.28263889378485,8.011935449683318,14.928263889378483,-5.815950622,0.0,4.10671634,0,1,0,0,0.863931,1