Shape,formula_pretty,formula_anonymous,volume,density,density_atomic,energy_per_atom,band_gap,efermi,is_gap_direct,is_metal,is_magnetic,ordering,total_magnetization,theoretical
0,SrCaEuSbO6,ABCDE6,150.49553120704215,5.488420015005835,15.049553120704214,-7.509513597,0.0,3.48539315,0,1,1,1,6.0000002,1
0,SrCaEuSbO6,ABCDE6,144.76079494621266,5.705845190699372,14.476079494621263,-7.508025829,0.0,2.98857972,0,1,1,1,6.0000465,1
0,SrCaTbNbO6,ABCDE6,150.05749707255245,5.262181040327003,15.005749707255244,-8.133015724,2.865,2.01005386,1,0,0,0,0.0,1
0,SrCaZrSnO6,ABCDE6,141.00486248847207,5.106610409595769,14.100486248847208,-7.658411135,3.724,3.32258148,1,0,0,0,0.0,1
0,SrNdZrTiO6,ABCDE6,133.78326613893634,5.795849833866186,13.378326613893634,-8.743624166,0.0,6.41733953,0,1,0,0,0.0019993,1
0,SrSmEuVO6,ABCDE6,141.44158943234572,6.303049708917919,14.144158943234572,-8.607727583,0.0543999999999993,4.12673971,0,0,1,1,6.9920103,1
1,SrSmEuVO6,ABCDE6,627.7334194042691,5.680840570486101,15.693335485106726,-8.57840987725,0.0,3.20629499,0,1,1,1,27.0689397,1
0,BaNaTbWO6,ABCDE6,150.29358845378667,6.61900015469527,15.029358845378669,-7.971744724,2.8478000000000003,1.79999055,0,0,0,0,0.0,1
6,BaSrPrHfO6,ABCDE6,327.28783541307905,6.497713721199746,16.364391770653953,-8.172566027,0.0,1.44443979,0,1,0,0,1.9999999,1
1,BaSrPrHfO6,ABCDE6,659.1521596482621,6.452600140398962,16.478803991206554,-8.16323828275,0.0,1.49529284,0,1,1,1,4.0002807,1
0,BaSrPrHfO6,ABCDE6,170.21186943700755,6.246986963891945,17.021186943700755,-8.101211579,0.0,1.54089818,0,1,0,0,1.0000001,1
1,BaSrSmBiO6,ABCDE6,660.3035688597104,6.843142333614171,16.507589221492758,-6.97018516925,1.8037,2.1626492,1,0,0,0,2.3e-06,1
0,BaSrSmBiO6,ABCDE6,168.17653987442557,6.716976262673626,16.817653987442558,-6.920270326000001,1.9687,2.29454442,0,0,0,0,0.0,1
6,Ca16Mn14Al2O45,A2B14C16D45,1772.5818588437846,4.092497289235012,11.510271810673926,-7.664427203766235,0.0,3.40026274,0,1,1,1,92.0000024,1
6,Ca4Zr3TaO12,AB3C4D12,263.31724174190504,5.088652554917232,13.165862087095253,-8.803197539,0.0,5.84842623,0,1,0,0,0.0034377,1
0,CaEuHfGaO6,ABCDE6,127.57798783851442,6.97978087212096,12.757798783851442,-8.618107501999999,0.0,2.70390756,0,1,1,1,5.9999959,1
0,CaLa(CoO3)2,ABC2D6,109.6323589183954,5.9502191536648965,10.96323589183954,-7.272739466999999,0.0,5.68505563,0,1,1,1,4.768789,1
0,CaTbEuSbO6,ABCDE6,146.85422337667237,6.430785463731285,14.685422337667235,-8.023325261,0.1396000000000006,6.14035663,1,0,1,1,7.0000002,1
0,CaYO3,ABC3,82.06034800537797,3.581335142433154,16.412069601075594,-7.493833682,0.0,1.40478637,0,1,1,1,0.9998708,1
0,CoSbO3,ABC3,53.35947409333591,7.116842923310956,10.67189481866718,-6.28937231,0.2954999999999996,6.92381076,0,0,0,0,0.0018907,1
0,Cs2InHgF6,ABC2D6,209.08345485369912,5.521346684814519,20.908345485369917,-4.206390131,0.0,1.34060882,0,1,0,0,0.0054196,1
0,CsTiO3,ABC3,69.27365160285488,5.48379645047965,13.854730320570976,-7.088216598,0.0,2.53286964,0,1,1,1,0.9994985,1
5,FeBiO3,ABC3,379.3144417492893,8.216757680391034,12.64381472497631,-7.058785729999999,1.6433,5.05840398,0,0,1,1,30.0039808,0
3,FeBiO3,ABC3,128.43770899214786,4.044418207321099,25.68754179842957,-6.6749197460000005,1.7818999999999998,-0.96636228,0,0,1,1,4.9999957,0
3,FeBiO3,ABC3,119.2804837913782,4.354910310918767,23.85609675827564,-6.52657535,1.1601,0.89379805,0,0,1,1,5.0000007,0
2,FeBiO3,ABC3,110.06483901965456,4.719543619753908,22.012967803930916,-5.012193886,0.0,1.10627123,0,1,1,1,4.0846894,1
5,FeBiO3,ABC3,517.8814859665492,2.006079857382676,51.78814859665492,-5.417101346000001,0.7019000000000002,-2.704943,0,0,1,1,11.9969572,1
5,FeBiO3,ABC3,109.19388191578324,4.757187853758022,21.83877638315665,-6.699512562000001,1.4146,1.80151672,0,0,1,1,5.0000302,1
2,FeBiO3,ABC3,137.3487563902953,7.564040948115276,13.73487563902953,-7.088385497,1.4197999999999995,4.16937553,0,0,1,2,0.0,1
1,FeBiO3,ABC3,122.78943566765976,8.460920207507165,12.278943566765976,-6.859807798,0.0,6.33817973,0,1,1,1,10.0016656,1
0,FeBiO3,ABC3,122.78943566765976,8.460920207507165,12.278943566765976,-6.859884235999999,0.0,6.33857515,0,1,1,1,9.9995794,0
5,FeBiO3,ABC3,2832.201859475577,0.3668211762636413,283.2201859475577,-3.70158609,0.0,-4.65616386,0,1,1,1,17.3690791,1
3,FeBiO3,ABC3,133.6500252449514,7.773373896524185,13.36500252449514,-7.08161758,1.7783000000000009,4.44748023,0,0,1,2,0.0,0
5,FeBiO3,ABC3,246.2916288206997,8.436434664738288,12.314581441034989,-6.8585577465,0.1276000000000001,6.32596733,0,0,1,1,20.0005435,0
3,FeBiO3,ABC3,125.36629858388716,8.287008783415024,12.536629858388718,-7.113564488,1.6328999999999994,4.70814413,0,0,1,1,10.0000001,0
1,FeBiO3,ABC3,240.5996233544685,8.636020314780833,12.029981167723426,-7.103591225,1.5419999999999998,5.3289365,0,0,1,1,20.0000004,0
3,FeBiO3,ABC3,116.80742898715596,8.8942255344319,11.680742898715597,-7.053073916,0.0,5.08585287,0,1,1,1,6.000011,1
6,FeBiO3,ABC3,132.00542267882287,3.9351096205973217,26.40108453576457,-6.677269874000001,1.6259,-0.96726475,0,0,1,1,5.0000427,1
1,Ho2PbS4,AB2C4,683.1131270098637,6.469153473136884,24.396897393209414,-6.118085562857144,2.2499,3.4917211,0,0,0,0,0.0,0
1,Ho2PbS4,AB2C4,1390.536875647639,6.356053889017569,24.83101563656498,-6.119794325892857,2.1222,5.26719091,0,0,0,0,0.0019762,1
0,HoCuO3,ABC3,53.37861048446102,8.600762313082878,10.675722096892205,-6.922426853999999,0.0,5.01038036,0,1,0,0,7.7e-06,1
0,HoRu3C,ABC3,70.34723407204834,11.333914362023789,14.069446814409668,-8.557251256,0.0,6.71920971,0,1,0,0,4.4e-06,1
0,KCaNbBiO6,ABCDE6,149.58525747930662,5.295815356279142,14.95852574793066,-7.077962269,0.0,3.25273235,0,1,0,0,2e-06,1
0,KPrVWO6,ABCDE6,129.55877113504718,6.546654696417635,12.955877113504718,-8.343189796,0.4008000000000002,5.14021591,0,0,1,1,2.9999996,1
0,KTbPrSbO6,ABCDE6,147.1175277882073,6.2834231083361045,14.71175277882073,-7.252681418,3.1998,3.00780303,1,0,0,0,0.0,1
5,LaEu3(NiO3)4,AB3C4D12,227.1868078532677,7.46674831690798,11.359340392663386,-8.080943510500001,0.0,4.22673452,0,1,1,3,22.0000001,1
0,Lu3AlC,ABC3,105.07059938012432,8.911786528401807,21.014119876024864,-5.789421248,0.0,3.48462365,0,1,0,0,9e-07,1
5,Na2LaCeTi4O12,ABC2D4E12,233.94407629101036,5.028674070142191,11.697203814550516,-8.641515719000001,0.0198999999999998,6.19246908,1,0,1,1,0.9313773,1
0,NaCaYWO6,ABCDE6,143.28549308236495,5.004256822786406,14.328549308236497,-8.075127098,2.8551,1.85932965,1,0,0,0,0.0,1
0,NaPrMgNbO6,ABCDE6,127.6631372246162,4.905080113460298,12.76631372246162,-7.585135224,0.0,2.31222621,0,1,1,1,1.0000002,1
0,Rb2ScCuF6,ABC2D6,162.68016311919044,4.015870387163083,16.268016311919045,-5.538642613,1.479,2.38833333,0,0,0,0,1.48e-05,1
0,ScSnO3,ABC3,69.29637433044239,5.072076719298021,13.859274866088478,-7.307863331999999,0.0,3.92635239,0,1,1,1,0.9385749,1
6,Sr2Ca14Mn14Al2O47,A2B2C14D14E47,1755.8907644444744,4.371763048073097,11.113232686357431,-7.630033831582279,0.1513,3.11624032,0,0,1,1,84.0100716,1
0,Sr2HfSnO6,ABC2D6,140.22463890291198,6.731419360124039,14.022463890291196,-7.910152207,3.7827,3.31101027,1,0,0,0,0.0,1
5,Sr2NdTaO6,ABC2D6,302.4928577262633,6.548181968535262,15.124642886313165,-8.484972145499999,3.7008,1.72379047,0,0,0,0,0.0014695,1
6,Sr2ZnWO6,ABC2D6,524.3417154466041,6.5933059669591865,13.108542886165102,-7.41241268475,3.5827000000000004,2.0649635,0,0,0,0,5.81e-05,1
2,Sr2ZnWO6,ABC2D6,130.84011649316815,6.605667768111903,13.084011649316816,-7.409314738000001,3.5324000000000004,2.32902308,0,0,0,0,1.19e-05,0
5,Sr2ZnWO6,ABC2D6,261.8621639290434,6.601078424824463,13.09310819645217,-7.411155633,3.515,2.2081662,0,0,0,0,0.0005464,0
0,Sr2ZnWO6,ABC2D6,131.44087599471703,6.575476112390377,13.144087599471703,-7.392897414000001,3.4104000000000005,2.52536377,0,0,0,0,2.93e-05,0
0,SrCa7Mn8O24,AB7C8D24,442.2645415914948,4.474225467874997,11.05661353978737,-7.61573751275,0.0,3.38582568,0,1,1,1,24.4488308,1
6,SrCa7Mn8O24,AB7C8D24,1768.6208362409295,4.475331817830437,11.05388022650581,-7.6718771021875,0.3178000000000001,2.83740281,1,0,1,1,96.0000078,1
1,TiCrAgS4,ABCD4,550.3010404794578,4.055428855461504,19.653608588552064,-6.349319873571429,0.3526000000000002,4.26980137,0,0,1,1,12.0048278,1
6,TiCrAgS4,ABCD4,634.2587417213601,3.5186061648816915,22.652097918620004,-6.196619295357143,0.0,2.96028263,0,1,1,1,11.9995755,1
5,TiCrAgS4,ABCD4,135.38545192321354,4.12102387488546,19.34077884617336,-6.374089335714286,0.0,4.21053525,0,1,1,1,3.0007203,1
5,TiCrAgS4,ABCD4,570.5342234921798,3.911608851596738,20.376222267577848,-6.318683297857143,0.0,3.85446333,0,1,1,1,11.9999753,1
6,TiCrAgS4,ABCD4,521.4795668513899,4.279566948759987,18.624270244692497,-6.265924698571429,0.0,4.6907322,0,1,1,1,12.000884,1
1,TiCrAgS4,ABCD4,617.0137981808346,3.6169478305521023,22.03620707788695,-6.193822298571428,0.0,3.03831841,0,1,1,1,8.0345713,1
1,TiCrAgS4,ABCD4,272.5689310200584,4.093839144467002,19.4692093585756,-6.235547332142858,0.0,4.27893515,0,1,1,1,0.0487017,1
5,TiCrAgS4,ABCD4,266.0868723291193,4.193567873559944,19.006205166365664,-6.380880928571429,0.0,4.38280591,0,1,1,1,6.0042531,1
6,TiCrAgS4,ABCD4,549.9954791502516,4.057681932584048,19.64269568393756,-6.353498183214286,0.3898999999999994,4.28743298,0,0,1,1,12.0044792,1
5,TiCrAgS4,ABCD4,271.41897966726964,4.111183973734471,19.387069976233544,-6.247340935714286,0.0,4.27747125,0,1,1,1,0.0474694,1
1,TiCrAgS4,ABCD4,522.8156779420445,4.268630060092177,18.67198849793016,-6.291231308571429,0.4511000000000003,4.72890629,1,0,1,1,12.0049349,1
5,TiCrAgS4,ABCD4,267.67104091413034,4.168748907482338,19.119360065295023,-6.247978072142857,0.0,4.50371152,0,1,1,1,0.127191,1
6,TiCrAgS4,ABCD4,630.0572855175898,3.542069538831764,22.50204591134249,-6.201364363571429,0.0,2.93747874,0,1,1,1,12.0072512,1
1,TiCrAgS4,ABCD4,559.3677669756105,3.989694885025774,19.977420249128947,-6.185145734285714,0.0,3.94921181,0,1,1,1,11.9977513,1
1,TiCrAgS4,ABCD4,632.4411627794437,3.528718322101313,22.587184384980134,-6.188385423928572,0.0,2.94553552,0,1,1,1,9.0336771,1
1,TiCrAgS4,ABCD4,505.2377647249206,4.417141541202778,18.04420588303288,-6.277367762857144,0.0,5.14851679,0,1,1,1,12.0006726,1
5,TiCrAgS4,ABCD4,132.9079406058246,4.197843087061345,18.986848657974942,-6.378744825714286,0.2202999999999999,4.39881661,0,0,1,1,3.0000187,1
1,TiCrAgS4,ABCD4,502.93330100110205,4.437381088722125,17.961903607182215,-6.298150223214286,0.3061999999999996,4.75681557,0,0,1,1,12.0014082,1
1,TiCrAgS4,ABCD4,272.9136425024688,4.088668302337971,19.4938316073192,-6.382015737142857,0.1826999999999996,4.26728423,0,0,1,1,5.9999173,1
6,TiCrAgS4,ABCD4,1052.5187704628524,4.240697232923407,18.79497804397951,-6.2105479125,0.0,4.5892727,0,1,1,1,23.9998265,1
1,TiCrAgS4,ABCD4,503.77669325740334,4.4299522955711605,17.992024759192976,-6.293259720714286,0.2747000000000001,4.75332425,0,0,1,1,12.0017684,1
1,TiCrAgS4,ABCD4,653.8206529146413,3.413331635827417,23.35073760409433,-6.211588994642858,0.27,2.49619942,0,0,1,1,11.9983708,1
5,TiCrAgS4,ABCD4,273.218576886616,4.084105012517188,19.515612634758288,-6.381425917142857,0.0,4.30300035,1,1,1,1,6.0002481,1
1,TiCrAgS4,ABCD4,504.0283627700439,4.42774034874912,18.001012956072994,-6.299766056785714,0.3544,4.73663707,0,0,1,1,12.0045779,1
6,TiCrAgS4,ABCD4,625.070885560145,3.5703258147289683,22.323960198576607,-6.193560237142857,0.0,3.07528752,0,1,1,1,12.0017245,1
1,TiCrAgS4,ABCD4,1074.2648887190776,4.15485369053047,19.18330158426924,-6.083124397678572,0.0,4.44073245,0,1,1,1,0.3060184,1
1,YbFeO3,ABC3,200.99788721902777,9.149854793930306,10.049894360951388,-7.3898156325,0.0,2.46764327,0,1,1,1,15.376264,0
5,BaLaMnSnO6,ABCDE6,138.30620850488003,6.553935305663477,13.830620850488003,-7.717231576,0.0,5.93986101,0,1,1,1,3.9993782,1
0,BaPaO3,ABC3,90.75101233528244,7.618469715769435,18.15020246705649,-8.825384121999999,0.0,7.52345396,0,1,1,1,1.0003132,0
0,CaEuZrTiO6,ABCDE6,130.39413161619655,5.439393985007516,13.039413161619654,-9.350248188,0.0,5.25215129,0,1,1,1,7.0027481,1
1,CaPrCr2O6,ABC2D6,230.53522294049984,5.488294737996823,11.526761147024994,-8.435189288,0.0,3.83894599,0,1,1,1,10.0260688,1
1,CrBiO3,ABC3,231.942668887704,8.84812721008082,11.5971334443852,-7.670347761,1.5411,5.85364495,0,0,1,2,0.0,0
5,CrBiO3,ABC3,455.0453581219345,2.2550040376569824,45.50453581219345,-5.734605755,0.0298,-1.55060118,0,0,1,3,12.0002676,1
3,CrBiO3,ABC3,118.64886501255924,8.64845289310953,11.864886501255922,-7.66684541,1.5415,5.59253648,0,0,1,2,0.0,1
5,CrBiO3,ABC3,248.44169502757876,8.2605226129062,12.422084751378936,-7.658867663,1.2936999999999994,5.64036619,1,0,1,2,3.24e-05,0
0,Cs2InGaCl6,ABC2D6,327.02380645103227,3.366890903434802,32.702380645103226,-3.669821074,1.9897,0.63972944,0,0,0,0,2.03e-05,1
0,Cs2NaSbF6,ABC2D6,198.76781107817536,4.382186312934052,19.87678110781754,-4.762747331,4.2317,0.85424827,0,0,0,0,0.0003491,1
0,Cs2RbTlF6,ABC2D6,234.0074282424913,4.751917568542096,23.40074282424913,-4.368105382,3.7422,-1.874919,0,0,0,0,0.0005694,1
0,CsEuO3,ABC3,97.4962479003604,5.669343712101113,19.49924958007208,-7.175191304,0.0,0.40584926,0,1,1,3,4.0352872,1
5,CsGeBr3,ABC3,191.7415934285745,3.856061589736092,38.3483186857149,-3.53446659,1.4434000000000002,1.03846506,1,0,0,0,0.000331,1
3,CsGeBr3,ABC3,182.0146934299267,4.062130257958362,36.40293868598534,-3.5350909800000005,0.7856000000000001,1.68680701,1,0,0,0,0.0,0
0,CsGeBr3,ABC3,169.417801492696,4.364165908542947,33.883560298539194,-3.522575448,0.7606999999999999,1.33568797,1,0,0,0,0.0,0
0,Eu2FeSnO6,ABC2D6,129.0243872065366,7.393528520541575,12.90243872065366,-8.761957288000001,0.0,4.30468966,0,1,1,1,18.0000008,1
0,EuHgO3,ABC3,76.2428771504522,8.723865115951115,15.24857543009044,-6.493105982,0.0,1.98087916,0,1,1,1,6.5805648,1
0,K2InAgBr6,ABC2D6,340.9234473033719,3.800647727759901,34.09234473033719,-3.165259975,0.2343,0.01752288,1,0,0,0,0.000743,1
0,K2LiPrCl6,ABC2D6,299.0720689916889,2.436146979789107,29.90720689916889,-4.398173057999999,4.8264,-1.04583333,1,0,0,0,0.0,1
0,K3BrO,ABC3,139.8196942845503,2.532004578426728,27.96393885691006,-3.5600156480000003,0.8913,1.12577295,1,0,0,0,0.0,0
0,KEuZrSnO6,ABCDE6,143.12286378198726,5.766205149598738,14.312286378198726,-8.119941784,0.0,2.48847997,0,1,1,1,5.9999999,1
0,KHfNbBiO6,ABCDE6,138.65727195390778,7.370795793947662,13.86572719539078,-8.203034033,0.0,5.03576242,0,1,0,0,0.000896,1
5,La2MgRhO6,ABC2D6,253.6559435992273,6.559749277533447,12.682797179961366,-7.7986246885,0.0,6.39736478,0,1,1,1,1.997962,0
1,LaYTi2O6,ABC2D6,244.7653308593705,5.692517103484941,12.238266542968525,-9.300620668,0.0,8.11208673,0,1,1,1,3.9966608,1
0,NaCaHfBiO6,ABCDE6,141.77629473104588,6.401225291283568,14.177629473104588,-7.235902695999999,1.4638,2.51696585,0,0,0,0,0.0,1
0,NaLaZrTiO6,ABCDE6,131.24069183061604,5.022871885933134,13.124069183061604,-8.645480553999999,2.2686,3.88314974,1,0,0,0,0.0,1
0,NaSmMnWO6,ABCDE6,129.4473953511392,6.5181698419546,12.94473953511392,-8.241289452999998,0.9514000000000004,4.33163465,0,0,1,1,5.0000007,1
0,Rb2YHgF6,ABC2D6,217.8529668036191,4.378411588839328,21.78529668036191,-5.127861397999999,0.0,0.22094131,0,1,1,1,0.9946568,1
0,Sr2LaSbO6,ABC2D6,161.32836353009773,5.474820517644529,16.132836353009772,-7.164715625,3.3858,3.69648501,1,0,0,0,3.94e-05,1
5,Sr2LaSbO6,ABC2D6,311.0604874105455,5.678920148844666,15.553024370527272,-7.258521146,3.4224,6.9715775,0,0,0,0,0.0105684,0
0,Sr2LaSbO6,ABC2D6,622.8193385749123,5.672552408238098,15.570483464372808,-7.226096498249999,3.674,3.7105734,0,0,0,0,0.0,1
0,Sr2PrCoO6,ABC2D6,142.1054320902499,5.504660569287769,14.21054320902499,-6.919542535000001,0.0,2.40527351,0,1,1,1,1.9999861,1
1,Sr3CaTi3MnO12,ABC3D3E12,479.56404812432976,4.802419087233181,11.989101203108245,-8.23541924425,0.7617000000000003,3.22409988,0,0,1,1,6.0538089,1
0,SrAlH3,ABC3,96.4160413648708,2.0258195670881345,19.28320827297416,-2.904714874,0.0743999999999999,0.44588825,0,0,0,0,0.0,0
0,SrPrDyCoO6,ABCDE6,130.32076633340964,6.956553122903113,13.032076633340964,-7.548928679000001,0.0,3.18002566,0,1,1,1,0.9999999,1
0,SrSmZrFeO6,ABCDE6,133.17629924908647,5.998024303214769,13.317629924908648,-8.353070118,1.9391,3.46126995,0,0,1,1,5.0,1
2,SrZrO3,ABC3,139.29130396935383,5.408526222661621,13.929130396935385,-8.665868154,3.5667,1.92755495,0,0,0,0,0.0,0
1,SrZrO3,ABC3,279.0274783994841,5.39990308071661,13.951373919974207,-8.670266024,3.4160000000000004,1.88233173,0,0,0,0,0.0,0
1,SrZrO3,ABC3,278.2199660312183,5.415575890210902,13.910998301560914,-8.6784611755,3.735,2.06125108,0,0,0,0,0.0,0
2,SrZrO3,ABC3,139.96387922066543,5.382536367967061,13.996387922066544,-8.658711245000001,3.1680999999999995,2.08002386,0,0,0,0,0.0,1
2,SrZrO3,ABC3,74.58215804793349,5.050542179423131,14.9164316095867,-8.63012045,3.6169,5.44030181,0,0,0,0,0.000111,1
0,SrZrO3,ABC3,73.96074740540564,5.092976318759586,14.792149481081127,-8.623552264,3.2143999999999995,2.0897287,0,0,0,0,0.0,0
1,SrZrO3,ABC3,139.44806583680602,5.402446176547386,13.944806583680602,-8.672668996,3.4652,2.01482989,0,0,0,0,0.0,1
0,SrZrO3,ABC3,592.0000195401844,5.090274630005099,14.800000488504612,-8.62373121625,3.3637000000000006,2.12319967,1,0,0,0,4.61e-05,0
0,SrZrO3,ABC3,85.49650328956366,4.405798138641195,17.099300657912732,-6.161220496,0.0,2.04631165,0,1,0,0,0.0278837,0
5,TlV5Se8,AB5C8,286.8958268640512,6.313328241490331,20.49255906171794,-6.363490322857143,0.0,5.04171769,0,1,1,3,5.3884899,0
1,BaSrCe2O6,ABC2D6,172.11905686607372,5.799911153101671,17.211905686607373,-8.069860223000001,2.2035,2.8939684,0,0,0,0,7e-07,1
1,CaNdMn2O6,ABC2D6,231.99040154553856,5.5858334553703015,11.599520077276928,-8.2298161635,0.0,4.10484119,0,1,1,1,14.0,1
1,CaNdMn2O6,ABC2D6,231.5023062572729,5.59761052590874,11.575115312863645,-8.2291768155,0.0,3.93165659,0,1,1,1,14.0000001,1
5,CaNdMn2O6,ABC2D6,686.9937909707825,5.658827328468411,11.449896516179708,-8.224590903333333,0.0,4.11737931,0,1,1,1,41.9990805,1
6,CaNdMn2O6,ABC2D6,692.208169443748,5.616199592035444,11.536802824062468,-8.227620190166666,0.0,3.98976335,0,1,1,1,42.000597,1
5,CaNdMn2O6,ABC2D6,926.1124140147516,5.5969868308329085,11.576405175184394,-8.229817832375,0.0,3.85664794,0,1,1,1,56.002041,1
0,CdCo3N,ABC3,57.291213052689926,8.78850561163403,11.458242610537985,-6.15998521,0.0,5.08635471,0,1,1,1,3.3160008,0
0,Cs2CuSbBr6,ABC2D6,339.86850308716544,4.546462851936821,33.98685030871654,-3.347863753,0.4006000000000003,1.81646561,0,0,0,0,0.0007288,1
0,K2AgSbI6,ABC2D6,436.0394131713402,4.071957794186022,43.603941317134016,-2.790851996,0.3809999999999998,1.74666829,0,0,0,0,0.0484393,1
0,K2NbAgF6,ABC2D6,184.55135234744583,3.53575348457338,18.45513523474458,-5.261891502999999,0.0,2.41220051,0,1,1,1,1.9837,1
0,KLaNbInO6,ABCDE6,140.55985629358688,5.690973622970343,14.055985629358688,-7.633052050000001,2.5501000000000005,3.98085298,0,0,0,0,0.0,1
5,LiLa5Ti8O24,AB5C8D24,480.4116610731433,5.075478125429149,12.64241213350377,-9.107662189210526,1.8682,4.16728898,1,0,0,0,7.83e-05,1
1,LiLa5Ti8O24,AB5C8D24,477.131490923386,5.110370879647822,12.556091866404891,-9.12522562868421,1.9695,4.26434755,1,0,0,0,0.0002152,1
6,LiLa5Ti8O24,AB5C8D24,476.2126329653694,5.120231401242851,12.53191139382551,-9.11328664736842,2.1172000000000004,4.28870864,0,0,0,0,0.0048032,1
5,LiLa5Ti8O24,AB5C8D24,476.6052013230509,5.116013988536158,12.542242140080289,-9.105422209473684,1.9374,4.41133133,0,0,0,0,0.0004846,1
0,NaCaYFeO6,ABCDE6,131.16874815077293,3.846165459735688,13.116874815077292,-6.985069639,0.0,1.76759831,0,1,1,1,4.0000007,1
0,NaCeMnWO6,ABCDE6,131.1489086350998,6.30389955130632,13.11489086350998,-8.379381997,0.1398999999999999,4.91943122,0,0,1,1,6.0000007,1
0,NaEuZr2O6,ABC2D6,146.11559102478228,5.152669660602235,14.611559102478228,-9.048100923,0.0,1.4508373,0,1,1,1,5.9988178,1
1,NaEuZr2O6,ABC2D6,138.2735856442767,5.444896574471111,13.82735856442767,-9.126850049,0.0,1.80503315,0,1,1,1,6.0088761,1
0,NaMgO3,ABC3,64.85162171421845,2.439996010571015,12.970324342843693,-4.949683258,0.0,0.33816864,0,1,1,1,3.0,1
0,Sr2NdVO6,ABC2D6,147.35159322784548,5.256193356471317,14.735159322784549,-7.723965354000001,1.6477000000000004,2.3458214,0,0,0,0,0.0,1
0,Sr2TaMnO6,ABC2D6,129.68765124447938,6.493266121537293,12.968765124447938,-8.489632408,0.0,3.88308527,0,1,1,1,4.0000611,1