Shape,formula_pretty,formula_anonymous,volume,density,density_atomic,energy_per_atom,band_gap,efermi,is_gap_direct,is_metal,is_magnetic,ordering,total_magnetization,theoretical
0,K2LiSmCl6,ABC2D6,290.0124413767207,2.5663709823150445,29.001244137672067,-4.410079382,4.9171,-0.97958333,1,0,0,0,8.09e-05,1
0,K2NaErCl6,ABC2D6,304.4136876153389,2.624686749026664,30.44136876153389,-4.351089707,4.9656,-1.2493939,1,0,0,0,0.000136,1
0,KEuHfSnO6,ABCDE6,139.27838590524905,6.965792933664128,13.927838590524903,-8.342135162,0.0,2.69541176,0,1,1,1,5.9999999,1
0,KGdHfTiO6,ABCDE6,128.82082321504944,6.686220560195965,12.882082321504944,-9.668259944,0.8886000000000003,2.68373448,0,0,1,1,6.9999997,1
0,KUO3,ABC3,79.44393397949031,6.795779335257007,15.888786795898062,-8.78844244,0.4454000000000002,4.86787333,0,0,1,1,1.0,0
0,Li3RuF6,AB3C6,122.91594141818382,3.186678865454619,12.291594141818385,-5.083766023,0.0,1.47334188,0,1,1,1,0.9990978,1
0,MgUO3,ABC3,55.435344139022334,9.295849070280466,11.087068827804467,-8.395218106,0.0,8.29710156,0,1,1,1,2.0036245,1
0,NaSmEuWO6,ABCDE6,150.8739937833338,6.660362545264882,15.087399378333378,-8.709077302,0.4222999999999999,3.95671024,0,0,1,1,7.0000002,1
0,Rb2NaAsCl6,ABC2D6,294.4367198637295,2.7158889861480744,29.443671986372948,-3.698546141,3.1484,-0.2544804,0,0,0,0,0.0006468,1
0,Rb2NaScF6,ABC2D6,167.42672762417504,3.499783173567841,16.742672762417506,-5.686235418,6.9076,-2.28874883,1,0,0,0,2.09e-05,1
0,RbCuBr3,ABC3,136.14377431777643,4.741269884208399,27.228754863555288,-3.198902856,0.0,1.05113936,0,1,1,1,0.2634764,1
0,Sr2DyMnO6,ABC2D6,138.4939625158131,5.85919409070934,13.849396251581313,-7.518931475,0.0,1.97268419,0,1,1,3,2.0006673,1
0,Sr2InOsO6,ABC2D6,137.70800050483396,6.949071631016452,13.770800050483397,-7.015378545999999,0.3809000000000004,5.06568936,1,0,1,1,2.9999979,1
5,Sr2InOsO6,ABC2D6,272.7051375578641,7.018149846693603,13.635256877893204,-7.067412617,0.4721999999999999,5.17232076,1,0,1,1,6.0106153,0
2,Sr2MnMoO6,ABC2D6,535.0186753817643,5.240471473251065,13.375466884544108,-7.950498417,0.9344,3.74564408,0,0,1,1,19.9989049,0
5,Sr2MnMoO6,ABC2D6,267.5680264466202,5.239322020701259,13.37840132233101,-7.956838284,0.9301,3.73677476,1,0,1,2,0.0,0
6,Sr2MnMoO6,ABC2D6,258.75495644900366,5.417770821613771,12.937747822450184,-7.9214638265,0.8079000000000001,3.98725828,0,0,1,3,1.9855319,1
2,Sr2MnMoO6,ABC2D6,486.6293207268862,5.761572487672343,12.165733018172157,-7.950065376500001,1.1037000000000003,3.86510422,0,0,1,3,13.4474661,0
2,Sr2MnMoO6,ABC2D6,261.55132076728694,5.359846965730524,13.077566038364347,-7.9319991715,0.2631999999999999,4.20109075,0,0,1,3,1.9860623,1
5,Sr7CaTi5Mn3O24,AB3C5D7E24,479.9754946433664,4.987243431688518,11.99938736608416,-8.1315965805,0.0,3.15442037,0,1,1,1,9.2095396,1
0,SrEuMgBiO6,ABCDE6,140.32676424060497,6.731601698824932,14.032676424060496,-7.133871156,0.0,2.99484838,0,1,1,1,6.0003429,1
5,SrTaNO2,ABCD2,271.49436660317895,7.696091721356412,13.574718330158948,-9.0877638235,1.1614000000000004,3.7926973,0,0,0,0,0.0003562,1
1,SrTaNO2,ABCD2,135.9334916937208,7.6855435741968305,13.59334916937208,-9.106122542,1.2176999999999998,3.9382045,0,0,0,0,5.26e-05,1
2,SrTaNO2,ABCD2,132.95995521236784,7.857424229243684,13.295995521236785,-9.059841215,0.6574999999999998,4.22708671,1,0,0,0,1.2e-06,0
1,SrTaNO2,ABCD2,67.7322010465853,7.712157271297501,13.54644020931706,-9.042288528,0.7517,4.1692112,0,0,0,0,8e-07,1
5,SrTaNO2,ABCD2,269.16205208275943,7.762779080637954,13.458102604137972,-9.1024822115,0.6686000000000005,4.20727024,1,0,0,0,5.8e-06,1
6,SrTaNO2,ABCD2,269.55213895712023,7.7515450453984815,13.477606947856012,-9.095412644,0.7003000000000004,4.04673354,0,0,0,0,6.47e-05,1
5,SrTaNO2,ABCD2,268.0635513888646,7.794590261839023,13.40317756944323,-9.1058581385,1.3361999999999998,3.58521314,1,0,0,0,0.0011554,1
5,SrTaNO2,ABCD2,269.0332704808559,7.766494989541863,13.451663524042797,-9.103007722,0.9817999999999998,3.9331551,0,0,0,0,6.1e-06,1
1,SrTaNO2,ABCD2,267.83674631005147,7.80119074770591,13.391837315502574,-9.109103872,1.1168000000000005,3.95939353,0,0,0,0,0.0,1
5,SrTaNO2,ABCD2,268.8940262607809,7.770516795279141,13.444701313039044,-9.102279781,0.6684999999999999,4.16311024,0,0,0,0,1.1e-06,1
5,SrTaNO2,ABCD2,269.9682300494615,7.7395979031562945,13.498411502473076,-9.102426536,0.891,4.10889733,1,0,0,0,3.7e-06,1
5,SrTaNO2,ABCD2,203.28430875144875,7.708829914281582,13.552287250096583,-9.092799440666669,0.4967000000000006,4.1567692,0,0,0,0,0.0015964,1
0,TiSnO3,ABC3,61.66409761506848,5.778248869345959,12.332819523013695,-7.946378162,1.0452000000000004,6.1483577,0,0,0,0,0.0001412,1
3,TiSnO3,ABC3,156.7978330522059,4.544839624216931,15.67978330522059,-8.104400851,1.1086,4.25442925,0,0,0,0,0.0,1
3,Ba6Tb3Nb(SnO9)2,AB2C3D6E18,1449.468531734245,6.595514398031385,16.10520590815828,-7.435244409888888,0.0,2.51871244,0,1,1,1,4.9253058,1
0,BaLaTiFeO6,ABCDE6,255.44109523173364,6.187872059580882,12.772054761586682,-8.4034561625,1.7837999999999994,4.79361584,0,0,1,2,0.0,1
0,BaRuO3,ABC3,67.1049654561984,7.08696316067908,13.42099309123968,-7.328901740000001,0.0,4.5608509,0,1,1,1,2.0165364,1
4,BaRuO3,ABC3,415.01932828972775,6.875396671955308,13.833977609657593,-7.371691194333334,0.0,4.38960844,0,1,1,1,7.3465312,0
3,BaRuO3,ABC3,209.27383936981565,6.817437184487096,13.951589291321044,-7.395671109333334,0.0,4.2514856,0,1,1,3,2.0479731,0
4,BaRuO3,ABC3,278.8465487700886,6.821965990747581,13.94232743850443,-7.389053776999999,0.0,4.37059066,0,1,1,1,8.0185275,0
0,BaSrCeHfO6,ABCDE6,160.43848758534932,6.619339160471915,16.04384875853493,-8.55123571,2.3501000000000003,2.64699537,1,0,0,0,0.0,1
6,BaSrCeHfO6,ABCDE6,315.1130247415611,6.7404180743819335,15.755651237078055,-8.59109965,2.1941000000000006,2.38130307,0,0,0,0,0.0,1
1,BaSrCeHfO6,ABCDE6,631.4615177223155,6.727230299329827,15.786537943057889,-8.58681066725,2.127,2.54471048,1,0,0,0,0.0,1
0,BaSrNbInO6,ABCDE6,145.7601579154761,6.022726062438532,14.57601579154761,-7.559360893999999,3.3943,2.94558205,0,0,0,0,0.0,1
0,BaSrTbCeO6,ABCDE6,172.42165487719754,5.9708793469386015,17.242165487719753,-7.671113817,0.0,2.09518011,0,1,1,1,1.0,1
1,BaSrTbCeO6,ABCDE6,675.4906735669899,6.096361879490171,16.88726683917475,-7.745008964999999,0.0,1.96394613,0,1,1,1,4.0000016,1
6,BaSrTbCeO6,ABCDE6,335.95328094626484,6.128881344283715,16.79766404731324,-7.7543677245,0.0,1.84095799,0,1,1,1,2.0,1
0,BiMoO3,ABC3,69.76336218902185,8.400327969313365,13.95267243780437,-7.32215941,0.0,6.50512767,0,1,1,1,2.7578378,1
3,Ca4UAl2(SiO5)3,AB2C3D4E15,245.472581614497,5.2531084051864445,9.81890326457988,-7.987144482,0.0,8.56353539,0,1,1,1,2.0001548,1
0,Cr3PdN,ABC3,56.62014018611297,8.106619033183105,11.324028037222591,-8.743892106,0.0,6.91452193,0,1,0,0,0.0673678,0
0,Cs2LiPrBr6,ABC2D6,370.35110683579074,4.004308623493347,37.03511068357908,-3.974490981,3.9721,-0.64625,1,0,0,0,0.0003947,1
0,Cs2NaBiI6,ABC2D6,490.0188539630295,4.267109076558455,49.00188539630295,-2.904834997,2.1074,0.63375,0,0,0,0,0.0004189,1
0,EuNbZnBiO6,ABCDE6,132.11354279699066,7.733173308560712,13.211354279699066,-7.881568139,0.0,5.07595464,0,1,1,1,6.8686054,1
1,EuNpO3,ABC3,311.6587018232607,9.312659001434982,15.582935091163034,-11.0350514735,0.0,7.06096231,0,1,1,1,40.0,1
0,K2InAgF6,ABC2D6,184.0055715287442,3.7439800460612,18.40055715287442,-4.530094927,1.6678000000000002,0.13766041,0,0,0,0,0.0,1
0,K2InHgCl6,ABC2D6,313.006834994513,3.216614628495683,31.3006834994513,-3.2576859820000004,0.0,1.44699152,0,1,0,0,0.0008594,1
0,K2NaBiBr6,ABC2D6,379.9918541483976,3.450459015640233,37.999185414839765,-3.3315600670000003,3.1276,-0.95692168,0,0,0,0,0.0006633,1
0,KCaCeFeO6,ABCDE6,137.1023227255424,4.495051546395063,13.71023227255424,-7.1252764630000005,0.0,2.52775944,0,1,1,1,3.0000004,1
5,La3PrMn4O12,AB3C4D12,251.16757381793371,6.40876979621326,12.558378690896689,-8.765909816999999,0.0,6.29845964,0,1,1,1,16.0134249,1
5,Li3VF6,AB3C6,603.1532738433948,3.068407121584963,10.05255456405658,-5.841022880500001,2.4336,-0.25754429,0,0,1,1,12.0000002,0
1,Li3VF6,AB3C6,397.23035578104594,3.1060395627442565,9.930758894526148,-5.833932441,2.4726,-0.11850258,0,0,1,1,7.9999998,1
3,Li3VF6,AB3C6,223.19516956418727,2.763978277370561,11.159758478209366,-5.788901647,2.4757,-0.26448229,0,0,1,1,3.9533525,1
5,Li3VF6,AB3C6,210.7817062235565,2.926755890452644,10.539085311177825,-5.809708062,4.069,0.0223087,0,0,1,1,4.0003961,1
0,Li3VF6,AB3C6,117.36248515972832,2.628210366582872,11.73624851597283,-5.5464602560000005,0.0,1.16026295,0,1,1,1,1.999758,1
3,Li3VF6,AB3C6,223.2611738629194,2.7631611426903477,11.16305869314597,-5.8062086735000005,5.8101,-0.30638873,0,0,1,1,3.9999528,1
5,Li3VF6,AB3C6,263.17171686731416,2.3441219582136346,13.158585843365708,-5.7696830785,3.556,1.17387638,0,0,1,1,4.0000666,1
5,Li3VF6,AB3C6,440.0690727318391,2.80368077883706,11.001726818295978,-5.79642657175,3.8407,2.26156268,0,0,1,1,7.9997864,1
3,Li3VF6,AB3C6,106.90094847645254,2.8854121926960308,10.690094847645254,-5.754882215,2.2633,-0.49463949,0,0,1,1,1.9999982,1
5,Li3VF6,AB3C6,222.89098400938585,2.76775035576798,11.14454920046929,-5.795925852,2.5271,-0.31708712,0,0,1,1,3.9999949,1
0,NaReO3,ABC3,58.75561985187984,7.2687905480204495,11.751123970375968,-7.799296918,0.0,4.32498626,0,1,0,0,0.0003663,1
0,NaSrGdMnO6,ABCDE6,139.11304959610337,4.998985757964944,13.911304959610336,-7.958154026000001,0.0,1.22255927,0,1,1,3,8.0000006,1
0,NaSrTbSeO6,ABCDE6,131.4228331709082,5.616189475819427,13.14228331709082,-6.515693831,2.0783000000000005,2.6505675,0,0,0,0,0.0,1
0,Nd3AlN,ABC3,170.0348707903528,4.626233406968918,34.00697415807056,-4.199950416,0.0,2.04152428,0,1,0,0,0.0067213,0
0,NpOsO3,ABC3,63.208168245276845,12.484699581671002,12.641633649055368,-9.445837192,0.0,10.03503766,0,1,1,3,3.5699089,1
0,PrEuNbFeO6,ABCDE6,128.65930861136775,6.938775562480721,12.865930861136777,-9.19201165,0.0,6.15275057,0,1,1,3,11.0093092,1
0,Rb2NdAgI6,ABC2D6,464.148251359393,4.237575070179681,46.4148251359393,-3.284897729,2.5524,0.72041667,0,0,0,0,0.0001152,1
0,Rb2TaCuBr6,ABC2D6,305.3202630801067,4.866821308984319,30.53202630801067,-4.04646329,0.0,2.66395326,0,1,1,1,1.9992182,1
0,ScNb(PbO3)2,ABC2D6,139.28212332698166,7.728622005581427,13.928212332698166,-7.998670941999999,2.5748999999999995,4.22619749,1,0,0,0,4.7e-06,1
0,Sr2HfNbO6,ABC2D6,139.50701155866264,6.458907835100937,13.950701155866264,-8.754552909000001,0.0,5.83417104,0,1,0,0,0.0284146,1
1,Sr4HfTi3O12,AB3C4D12,255.5373876014747,5.618128834075408,12.776869380073736,-8.5873221385,1.8067999999999995,4.77535265,0,0,0,0,0.0092284,1
0,SrPuO3,ABC3,83.05762881533012,7.589559929454946,16.611525763066023,-9.490294574,0.0,6.59826209,0,1,1,1,3.9998094,1
0,SrTbEuVO6,ABCDE6,145.61330809154563,6.220148963480106,14.561330809154564,-8.65676406,0.0586000000000002,3.69219544,0,0,1,1,6.9751642,1
1,TbNiO3,ABC3,211.05097957634084,8.359446103714426,10.55254897881704,-7.545764435999999,0.0,3.93127481,0,1,1,1,3.9999988,1
0,TbNiO3,ABC3,52.25900745238172,8.440024863236033,10.451801490476344,-7.347095931999999,0.0,5.04301787,0,1,1,1,1.0005355,1
3,TbNiO3,ABC3,108.19253637657695,8.15337798701662,10.819253637657695,-7.504032710999999,0.0,4.91987023,0,1,1,1,1.999989,1
0,TiBeO3,ABC3,38.92037628226892,4.474596770357307,7.784075256453784,-7.608062538,0.0,6.08997677,0,1,0,0,0.0010819,1
0,ZrRu3C,ABC3,67.69365555236604,9.97017072361262,13.538731110473208,-9.44637781,0.0,7.78904207,0,1,0,0,4.1e-06,0
0,BaCaCrSbO6,ABCDE6,130.3262159401513,5.697414693711144,13.03262159401513,-7.306922852999999,1.2601,3.99167517,1,0,1,1,3.0003493,1
0,BaSrInWO6,ABCDE6,144.50673810025685,7.119891736164131,14.450673810025686,-7.426866565,0.0,5.92119448,0,1,1,1,1.0,1
6,BaSrInWO6,ABCDE6,288.8377321511639,7.124223852315739,14.441886607558194,-7.518667082,2.0993000000000004,4.55595439,0,0,1,1,1.9999999,1
1,BaSrPrWO6,ABCDE6,636.9575333364122,6.733228872341094,15.923938333410304,-8.1348827475,1.9162000000000003,3.41896309,0,0,1,1,3.9999999,1
6,BaSrPrWO6,ABCDE6,318.3711946181334,6.735503912437843,15.91855973090667,-8.145431951,2.1063,3.22743434,0,0,1,1,1.9999999,1
0,BaSrPrWO6,ABCDE6,162.44934214154736,6.60018193576146,16.244934214154735,-8.031560328000001,0.0,4.97326569,0,1,1,1,1.0,1
0,BaTiMnBiO6,ABCDE6,127.65844824699192,7.09059639296558,12.76584482469919,-7.750479028000001,0.0,5.17913995,0,1,1,1,4.0101239,1
1,CaNdFeO4,ABCD4,185.75800753466712,5.437976931404904,13.26842910961908,-7.884426590714285,0.0,3.48114158,1,1,1,1,9.9995202,1
1,CeCrO3,ABC3,245.02487755512757,6.508931459065264,12.251243877756377,-9.187636586,0.0,7.71463871,0,1,1,3,9.0082449,1
0,CeCrO3,ABC3,59.618378740261385,6.687745320618523,11.923675748052275,-9.057196486,0.0,8.03802195,0,1,1,1,4.0008028,0
0,Cs2PrCuI6,ABC2D6,440.9201572446549,4.638644005232576,44.0920157244655,-3.384784072,1.7763999999999998,2.08041667,0,0,0,0,0.0011294,1
0,Cs2RbGaBr6,ABC2D6,401.3871988650637,3.725061641124599,40.138719886506365,-3.25920318,2.1605,-0.87820761,1,0,0,0,0.0010721,1
4,CsNiF3,ABC3,259.15260821120165,3.185768830920607,25.915260821120164,-4.996096079,4.3878,-2.09124774,0,0,1,1,3.9996598,1
4,CsNiF3,ABC3,475.63212640576825,5.207387742686004,15.854404213525608,-5.062250362666666,0.0,1.72066879,0,1,1,3,4.0,0
4,CsNiF3,ABC3,172.8264126890776,4.777049345902455,17.28264126890776,-5.090860699,5.3618,-1.05853017,0,0,1,1,4.0000002,0
3,CsNiF3,ABC3,253.07704732558184,4.893373245908569,16.87180315503879,-5.083441507333333,4.7178,-0.74789361,1,0,1,1,6.0034086,0
0,Gd3SnC,ABC3,121.10208621393856,8.261014860342694,24.22041724278771,-11.700816084,0.0,4.59242852,0,1,1,3,21.8300514,1
1,HfCoO3,ABC3,229.81662368908223,8.249244449473402,11.490831184454112,-9.212655324,2.4865,3.19381154,0,0,1,2,3e-07,1
0,K2InAgCl6,ABC2D6,289.1466888866102,2.949555453396399,28.91466888866102,-3.569637324,1.2922,0.32014376,1,0,0,0,0.0004531,1
0,K3TiF6,AB3C6,182.46489640830092,2.540452112642665,18.24648964083009,-5.544146403,0.0,2.75454527,0,1,1,1,0.9856465,1
0,KCeMgWO6,ABCDE6,127.2146430697994,6.309266005434661,12.72146430697994,-7.878026295000001,0.1377000000000006,5.22561074,0,0,1,1,0.9999994,1
0,KLaTbNiO6,ABCDE6,133.06360228666455,6.135054278637351,13.306360228666454,-6.913108946,0.0,3.44881134,0,1,1,3,1.0000003,1
0,KTl2GaF6,ABC2D6,179.03296413609985,5.857918276166745,17.903296413609986,-4.679387317,4.5515,-0.58860561,1,0,0,0,0.0006011,1
5,La2MnCrO6,ABC2D6,248.86187029658777,6.4155269413222245,12.443093514829387,-8.9183255425,0.7623999999999995,7.25923332,0,0,1,2,0.0004551,1
6,La2MnCrO6,ABC2D6,249.71826838839115,6.393525166818821,12.485913419419555,-8.921552003,0.9733,7.27332995,0,0,1,3,6.0019198,1
5,La7SmMn3Fe5O24,AB3C5D7E24,492.642642026062,6.575256615640804,12.31606605065155,-8.46947609975,0.0,7.9550446,0,1,1,1,36.9986697,1
0,Na2LiGaF6,ABC2D6,119.31341531197882,3.293342415160953,11.931341531197882,-4.9257555150000005,5.7453,-1.91916667,1,0,0,0,4.18e-05,1
0,NaEuNb2O6,ABC2D6,133.21125361615782,5.693758354902939,13.32112536161578,-9.15953995,0.0,4.69866293,0,1,1,1,6.6465064,1
0,NaSrEuSeO6,ABCDE6,136.9758727524615,5.304116150575832,13.69758727524615,-6.85569687,0.0,2.49069354,0,1,1,1,6.0,1
1,NaSrTbBiO6,ABCDE6,614.8740381205496,6.206145825299904,15.37185095301374,-6.493130583999999,0.0,1.49445112,0,1,0,0,3.9999971,1
0,NaSrTbBiO6,ABCDE6,161.34823112270172,5.912673969547831,16.134823112270173,-6.429310145,0.0,1.47569424,0,1,0,0,1.0000001,1
0,PrEuMnNbO6,ABCDE6,135.86570752998026,6.559654002997156,13.586570752998025,-9.385252599,0.1095000000000006,5.47756172,1,0,1,1,12.0000129,1
0,Rb2GaHgCl6,ABC2D6,292.49513420077324,3.712667188528925,29.249513420077324,-3.278723176,0.0,1.23289119,0,1,0,0,0.0040865,1
1,RbPdBr3,ABC3,148.24605360759736,4.83445131655105,29.649210721519477,-3.435351548,0.0,0.69780839,0,1,0,0,0.0002115,1
0,ReBiO3,ABC3,65.13167751772735,11.299064151299625,13.026335503545472,-7.447180904,0.0,7.80107864,0,1,0,0,0.0322649,1
0,Sr2MnReO6,ABC2D6,133.5984460849768,6.368557654347861,13.35984460849768,-8.098972753000002,0.2928000000000006,4.32635634,0,0,1,3,3.9960342,1
0,SrCaDyNbO6,ABCDE6,148.42700144521163,5.359978671550515,14.842700144521164,-8.147998473,2.8784,2.01520282,1,0,0,0,0.0,1
1,Zn(BiO2)2,AB2C4,209.98570474024163,8.657017415615362,14.99897891001726,-5.515748177142856,0.8867000000000003,4.86140029,0,0,0,0,0.0029329,1
1,Zn(BiO2)2,AB2C4,221.27903757954795,8.215192558911214,15.805645541396284,-5.643308570714285,1.5583999999999998,4.28107586,0,0,0,0,7.61e-05,1
6,Zn(BiO2)2,AB2C4,222.7935488124788,8.159347129465532,15.913824915177056,-5.734614512857142,1.7049,3.70115118,0,0,0,0,0.0039886,1
1,Zn(BiO2)2,AB2C4,427.8779187479545,8.49704938402002,15.281354240998374,-5.591031579285714,1.4934999999999992,4.22440016,0,0,0,0,0.0015317,1
6,Zn(BiO2)2,AB2C4,674.0193002311996,8.091088351667313,16.048078576933325,-5.661977052380952,1.3339000000000003,3.96408346,0,0,0,0,0.0014699,1
0,Zn(BiO2)2,AB2C4,224.9391921650585,8.081516988967463,16.067085154647035,-5.608362854285714,0.3976999999999995,3.82373052,0,0,0,0,0.0003631,1
3,Zn(BiO2)2,AB2C4,226.6267916123254,8.021337150976422,16.187627972308956,-5.627433972857142,1.0585999999999998,3.94191727,0,0,0,0,0.00033,1
1,Zn(BiO2)2,AB2C4,417.4762226556638,8.708758987052098,14.909865094845134,-5.619482291071428,1.1669,4.3811803,0,0,0,0,1.82e-05,1
1,BaTbEuSnO6,ABCDE6,617.0261721211879,7.136223221965366,15.425654303029695,-8.06471009125,0.0,2.81460274,0,1,1,1,23.9355976,1
0,BaTbEuSnO6,ABCDE6,156.20593480693938,7.047165819105627,15.620593480693936,-7.961534345,0.0,2.63736907,0,1,1,1,5.9999999,1
1,Ca3Co2O7,A2B3C7,269.5240691509274,4.313888569538286,11.230169547955308,-6.791772201250001,0.1744999999999996,2.92387299,0,0,1,1,3.9995831,1
5,Ca3Co2O7,A2B3C7,276.266598539933,4.208604323760008,11.511108272497207,-6.789559471249999,0.3367,2.69763045,0,0,1,2,0.0005447,1
6,CaLaVFeO6,ABCDE6,356.09807055171274,5.34070266696665,11.869935685057092,-8.288403798333333,1.0324999999999998,6.658372,0,0,1,1,18.0006479,1
0,CaLaVFeO6,ABCDE6,119.2699077328615,5.315154373381025,11.92699077328615,-8.183445217000001,1.0776000000000003,5.42437432,0,0,1,1,6.0000195,1
5,CaLaVFeO6,ABCDE6,238.13839686173117,5.324113877084256,11.906919843086555,-8.307336369000001,0.0,5.69671101,0,1,1,3,7.9999438,1
0,Cs2LiSmCl6,ABC2D6,308.32447079657715,3.4243807902909427,30.832447079657715,-4.430113056,4.9508,-0.69621446,1,0,0,0,3.48e-05,1
0,Cs2NaInF6,ABC2D6,187.4447210078428,4.585405843050348,18.744472100784275,-4.736678518,5.3079,-1.55149438,1,0,0,0,0.0003062,0
0,Cs2NaMgF6,ABC2D6,174.58737365299504,4.0622052533578055,17.458737365299505,-4.586207611,0.0,-1.90800358,0,1,0,0,1.0012813,1
0,Cs2YCuI6,ABC2D6,421.7070707806187,4.645216453519407,42.170707078061874,-3.547181951,1.7212,2.15375,0,0,0,0,0.000624,1
0,K2AgBiF6,ABC2D6,205.2019601887609,4.119227375776391,20.52019601887609,-4.5545835310000005,2.3982,0.42669271,0,0,0,0,0.0,1
0,K2LuAgCl6,ABC2D6,297.8913812234377,3.19825955837012,29.78913812234377,-4.214566149,3.6296,-0.23474668,0,0,0,0,0.001535,1
1,K2Na2Mo(WO4)3,AB2C2D3E12,257.48384717056734,6.214539342055011,12.874192358528369,-7.8549125365,0.0,3.81966871,0,1,1,1,3.9960128,1
0,K2PrCuBr6,ABC2D6,346.4227345817344,3.6529186379836895,34.64227345817344,-3.857258949,2.2293000000000003,1.02379017,0,0,0,0,0.0006416,1
2,KCrF3,ABC3,144.81653079525373,3.396139663724107,14.481653079525373,-6.2306271970000005,1.5720000000000005,2.01901568,0,0,1,1,7.9999995,1
1,KCrF3,ABC3,144.40926392615722,3.405717547651045,14.440926392615722,-6.230846555,0.1573999999999999,2.91883525,0,0,1,1,7.9999995,0
5,KCrF3,ABC3,143.85218425808222,3.41890647495714,14.385218425808224,-6.233367434,1.9672000000000005,1.51577598,1,0,1,1,7.9999997,0
2,KCrF3,ABC3,143.9373720095832,3.416883032739684,14.393737200958322,-6.228462199000001,1.968,1.74361039,1,0,1,1,7.9999997,1
0,KCrF3,ABC3,75.13200290455114,3.2730204518938284,15.026400580910227,-6.1468496660000005,0.0,2.94254324,0,1,1,1,4.0030434,1
2,KCrF3,ABC3,77.09583164614405,3.1896482189467568,15.41916632922881,-6.206554186,0.7059000000000002,2.35802223,0,0,1,1,3.9989126,0
0,KHfO3,ABC3,72.92743889412984,6.047336441525025,14.585487778825968,-8.12971787,0.0,0.58125397,0,1,1,1,1.0001286,1