Shape,formula_pretty,formula_anonymous,volume,density,density_atomic,energy_per_atom,band_gap,efermi,is_gap_direct,is_metal,is_magnetic,ordering,total_magnetization,theoretical
5,LiMnF3,ABC3,521.2157011473794,3.0297681875924773,13.030392528684484,-6.33221721725,3.4187000000000003,-0.50719092,1,0,1,1,40.0003328,1
5,LiMnF3,ABC3,503.1410099492376,3.138608698124928,12.57852524873094,-6.31520345875,0.0,2.06386151,0,1,1,1,39.9989032,1
3,LiMnF3,ABC3,491.78593982058464,2.408308100653744,16.392864660686154,-6.314515203333333,3.1237,-1.55455819,1,0,1,1,29.9983387,1
3,LiMnF3,ABC3,356.5187030651735,3.3220474900050867,11.883956768839116,-6.376203399,3.8917,-0.45695881,1,0,1,1,30.0,1
5,LiMnF3,ABC3,527.3267746789631,2.9946568731910745,13.18316936697408,-6.36878884925,0.0,3.05280089,0,1,1,1,40.0055138,1
5,LiMnF3,ABC3,262.5736035238223,3.007085878049365,13.128680176191116,-6.3499353415,2.9856000000000003,-0.38175689,0,0,1,2,1e-07,1
6,LiMnF3,ABC3,400.6969412754181,2.9557801436858315,13.356564709180605,-6.342207005333334,3.5293,-0.83609695,0,0,1,1,29.9980996,1
3,LiMnF3,ABC3,359.9885776407317,3.2900267847929627,11.999619254691057,-6.3547667836666655,3.2825,-0.55087066,1,0,1,1,29.9970997,1
2,LiMnF3,ABC3,934.1590796201106,3.380928975934651,11.676988495251384,-6.346211247625,3.0376000000000003,0.00956509,0,0,1,1,79.9966914,1
1,LiMnF3,ABC3,483.01332597530217,3.2693978929492,12.075333149382557,-6.38721514075,3.5243,0.03019416,0,0,1,1,40.0001332,1
3,LiMnF3,ABC3,250.2289217503159,3.15543610859212,12.511446087515797,-6.342193985500001,3.6033,-0.3186509,0,0,1,2,0.0,1
4,LiMnF3,ABC3,267.3342907015824,2.953535713779442,13.36671453507912,-6.3240310410000005,3.5423,-0.59645506,0,0,1,1,20.0000001,1
6,LiMnF3,ABC3,373.182076422699,3.1737110045874872,12.4394025474233,-6.332929426999999,3.2808,2.88215348,0,0,1,1,29.995905,1
0,MnTlF3,ABC3,75.96225372325313,6.914697373767145,15.192450744650625,-6.051000196,2.6304,2.19544397,0,0,1,1,5.0000006,1
0,Na4SrU3O12,AB3C4D12,328.2146533169136,5.492681426299987,16.41073266584568,-8.148697955500001,2.0816,1.82776176,0,0,0,0,0.0010174,1
0,NaCrO3,ABC3,52.65299502293593,3.8785989575696806,10.530599004587186,-6.875870178,0.0,2.57151741,0,1,1,3,1.0000756,1
5,NaLa5Mg4(WO6)4,AB4C4D5E24,502.2122687910693,6.394945151641649,13.216112336607086,-8.378692382105264,3.3623,7.04939028,0,0,0,0,1.86e-05,1
5,Nd2CoNiO6,ABC2D6,234.43533920171956,7.112991442755275,11.721766960085976,-7.734094862499999,0.6075999999999997,4.14316396,0,0,1,1,5.9937012,1
0,NiPtO3,ABC3,61.83793399368838,8.10360470965608,12.367586798737676,-5.1398230300000005,0.0,3.31207443,0,1,1,1,2.3932952,1
0,Rb2AgMoF6,ABC2D6,184.45849375423265,4.399701242530748,18.445849375423265,-5.30388444,2.6738,0.01317761,1,0,1,1,2.9999306,1
0,Rb2LiTaF6,ABC2D6,154.8655080544787,5.069738389493083,15.486550805447871,-5.678913554999999,0.0,3.67340067,0,1,1,1,1.9999364,1
0,Sr2CeHfO6,ABC2D6,157.49477590820976,6.218976741856792,15.749477590820977,-8.499054086,2.4374,2.57186857,1,0,0,0,0.0,1
0,Sr2CeHfO6,ABC2D6,610.5647347565774,6.416724010289245,15.264118368914437,-8.5637444855,2.3311,2.46063996,1,0,0,0,0.0,1
0,Sr2ZrCrO6,ABC2D6,523.3911109862939,5.25970881209196,13.084777774657349,-8.24494569175,0.0,2.8540849,0,1,1,2,1.91e-05,1
0,Sr3SbN,ABC3,140.19996748628466,4.72136492046329,28.039993497256933,-4.536857728,0.2576999999999998,3.7761158,1,0,0,0,0.0,0
0,Sr3SbN,ABC3,240.822490633365,2.748643644532301,48.164498126673,-3.053826614,0.0,1.52562916,0,1,1,1,0.2897292,1
5,Sr6Ca2Fe3Co5O24,A2B3C5D6E24,462.047960491996,5.218520238392138,11.5511990122999,-6.901436943249999,0.0,2.92162959,0,1,1,1,27.2986001,1
0,Sr7CaTi8O24,AB7C8D24,488.387558674985,4.829216780291869,12.209688966874626,-8.43698985825,1.7714,3.27308967,1,0,0,0,0.0019498,1
0,SrCaEuMnO6,ABCDE6,135.54582576924835,5.275132707360711,13.554582576924837,-7.819616865,0.0,2.07049113,0,1,1,3,8.0000013,1
0,SrEuDySbO6,ABCDE6,147.74348088162947,6.966596381207577,14.774348088162949,-8.06707815,0.2673999999999994,6.07171575,1,0,1,1,7.0000002,1
5,SrLa4Cr5O15,AB4C5D15,300.0631985133504,6.326502178058234,12.002527940534014,-8.766687710800001,0.0,7.30281091,0,1,1,1,13.9986746,1
5,SrLa4Cr5O15,AB4C5D15,300.9280068176757,6.308321046701352,12.037120272707028,-8.7820632904,0.4964000000000004,6.33968754,0,0,1,3,1.9872549,1
0,SrTmO3,ABC3,80.4155987800097,6.28884423301585,16.083119756001942,-7.323091074,0.0,1.28018194,0,1,1,1,0.999033,1
1,TbCoO3,ABC3,205.64415112513475,8.586979182753064,10.282207556256736,-7.9451875995,1.4208999999999996,3.53420741,0,0,0,0,0.0,0
0,YbSiO3,ABC3,43.77570241912949,9.44998283077612,8.755140483825897,-7.79304712,4.068899999999999,5.81411693,0,0,0,0,0.0,1
0,YbTa(PbO3)2,ABC2D6,150.6273132440068,9.529107534234152,15.062731324400682,-7.468400011,0.0,3.05809935,0,1,0,0,0.9926322,1
0,BaNdDyMnO6,ABCDE6,138.55457785912537,7.130955039166264,13.855457785912536,-8.035045204000001,2.0617,2.84187711,0,0,1,3,3.0000003,1
0,BaNdMnSnO6,ABCDE6,134.76409945923558,6.791953221447825,13.476409945923558,-7.560075450000001,0.0,5.24127553,0,1,1,1,3.9999998,1
5,Ca3Mn2WO9,AB2C3D9,717.412353629527,5.165726238527901,11.956872560492116,-8.151337630666667,0.3203,3.352723,0,0,1,1,32.0006434,1
0,Ca3SnO,ABC3,112.432864066377,3.765300110312062,22.4865728132754,-4.762233490000001,0.0,5.12010076,0,1,0,0,1.2e-06,0
5,CaPr3(FeO3)4,AB3C4D12,241.8101859246661,6.030522715829368,12.090509296233304,-8.117119148499999,0.0,3.64986183,0,1,1,1,19.0102266,1
5,CaWO3,ABC3,69.25007416783295,6.520245333558877,13.85001483356659,-8.406033696,0.0,5.27437143,0,1,1,1,2.0000836,1
1,CaWO3,ABC3,255.79037973460856,7.060898434255337,12.789518986730428,-8.5729237665,1.9784000000000008,6.22052008,1,0,1,1,7.9996162,1
0,Cs2AlInI6,ABC2D6,456.5002706447314,4.252422549026411,45.65002706447314,-2.928751901,0.9566,1.88010417,0,0,0,0,0.0007628,1
0,Cs2KAsI6,ABC2D6,496.1455977604826,3.819650679012693,49.61455977604827,-2.8691384490000003,1.885,0.67483576,0,0,0,0,0.0014855,1
0,Cs2NaCrCl6,ABC2D6,286.9790778885936,3.202787155781387,28.69790778885936,-4.396799277,1.3532,0.55652007,1,0,1,1,2.9997642,1
0,Cs2RbEuCl6,ABC2D6,399.8384338683058,2.973402799996738,39.98384338683058,-4.720875532999999,0.0,-1.55324727,0,1,1,1,6.0165502,1
0,CsKO3,ABC3,90.71143373223842,4.027296458972959,18.142286746447684,-3.78797655,0.0,-0.12798382,0,1,0,0,0.0002015,1
0,CsPbO3,ABC3,89.94995765714654,7.164664583017451,17.989991531429308,-5.014652548,0.0,2.01281751,0,1,1,1,1.0528167,1
0,CsUBr3,ABC3,193.71287247911607,5.234562509114772,38.74257449582321,-4.909576282,0.0,4.57461377,0,1,1,1,3.9998954,1
0,Eu2ZrSnO6,ABC2D6,142.72802292559882,7.09526887247689,14.272802292559884,-9.342085229,0.5011999999999999,6.34069196,1,0,1,1,13.9999997,1
0,KCaEuFeO6,ABCDE6,139.53812405030138,4.557579363856351,13.953812405030138,-7.170376731999999,0.0,1.41925812,0,1,1,3,8.004643,1
0,KTaO3,ABC3,63.7546200303669,6.981426041917768,12.75092400607338,-8.640023914,2.0995,1.68905649,0,0,0,0,0.0,0
5,La2MnVO6,ABC2D6,257.45842228446224,6.187708331390898,12.872921114223113,-8.939407916499999,0.0,7.2317612,0,1,1,1,11.9999606,0
6,La2TiCrO6,ABC2D6,252.2622516476233,6.235956946997479,12.613112582381165,-9.1118406655,0.0,9.08915378,0,1,1,3,1.9991852,1
6,La2TiCrO6,ABC2D6,505.3390239353501,6.225905644003757,12.63347559838375,-9.1107720295,0.0,9.03697889,0,1,1,3,4.0166242,1
6,La2TiCrO6,ABC2D6,505.7189334667898,6.22122857787181,12.642973336669744,-9.1106670775,0.0,9.04981163,0,1,1,3,3.9403679,1
6,La2TiCrO6,ABC2D6,252.4847275924977,6.230462157561269,12.624236379624886,-9.1106527315,0.0,9.11203244,0,1,1,3,1.9953911,1
3,La2TiCrO6,ABC2D6,123.73043377155628,6.356950722130473,12.373043377155629,-9.104245875999998,0.0,9.23753341,0,1,1,3,2.0004393,1
1,LaCe2Mn3O9,AB2C3D9,182.49786370514775,6.6235466390920585,12.166524247009852,-8.761429684000001,0.0,8.32231354,0,1,1,1,14.0000001,1
0,Na2LiInF6,ABC2D6,136.92620961885805,3.41659892474341,13.692620961885805,-4.776317614,4.8635,-1.4925,1,0,0,0,0.0001036,1
0,Rb2SbAuCl6,ABC2D6,310.8783629159334,3.751723662238291,31.08783629159334,-3.546315958,0.3774999999999999,1.71237647,0,0,0,0,0.0007574,1
1,Rb3ClO,ABC3,591.9812829791914,3.4542077425604387,29.59906414895957,-3.541824264,1.2267,1.13032893,0,0,0,0,0.0,1
4,Rb3ClO,ABC3,1025.7466015651569,2.9902507032401244,34.19155338550522,-3.500219983,0.6094999999999999,1.14980809,1,0,0,0,0.000153,1
1,Rb3ClO,ABC3,654.5535163591668,3.124001750829412,32.72767581795834,-3.5266640545000003,0.6579000000000002,1.40904851,1,0,0,0,0.0010724,1
0,Rb3ClO,ABC3,169.45012298942564,3.0168557789202524,33.89002459788513,-3.500376682,0.4794,1.33118673,1,0,0,0,4.69e-05,1
4,RbMnCl3,ABC3,789.3611759695846,3.1146401256637115,26.312039198986152,-4.961344522,1.3345000000000002,1.48540013,0,0,1,1,29.9999996,0
6,Sr3La9Mn11NiO36,AB3C9D11E36,725.3363943453637,6.300252900795799,12.088939905756062,-8.427776018833333,0.0,6.28522886,0,1,1,1,41.9933681,1
5,Sr7CaFe5(CoO8)3,AB3C5D7E24,468.3335171198124,5.295149191125707,11.70833792799531,-7.026447147499999,0.0,2.88970881,0,1,1,1,29.8714449,1
0,SrEuZrSbO6,ABCDE6,149.44304459876807,6.09538315544662,14.944304459876808,-8.340381713,0.0,5.84581864,0,1,1,1,6.8993185,1
0,SrNdHfFeO6,ABCDE6,131.21099123376604,7.11483157703972,13.121099123376604,-8.616830754999999,2.0894,3.48018206,0,0,1,1,5.0000004,1
1,SrSmEuSbO6,ABCDE6,616.7006077396076,6.545219786224228,15.417515193490187,-8.04787751,0.0,5.71542395,0,1,1,2,0.0034279,1
0,SrSmEuSbO6,ABCDE6,153.35090879453875,6.580399574550051,15.335090879453876,-8.005718414,0.3827999999999996,5.7283372,1,0,1,1,7.0000002,1
6,SrSmEuSbO6,ABCDE6,295.99643516629175,6.818394650067492,14.799821758314588,-8.090728774,0.0192999999999994,6.09683593,0,0,1,1,13.999957,1
0,SrTbEuSbO6,ABCDE6,149.11584739964582,6.862673358519099,14.911584739964582,-8.056765015,0.2960000000000002,5.97468194,1,0,1,1,7.0000002,1
0,TaRu3C,ABC3,66.70646294978734,12.35123666097595,13.341292589957469,-9.858502362,0.0,8.43366787,0,1,0,0,3.4e-06,0
6,BaEuYWO6,ABCDE6,299.6130965212131,7.294006379787207,14.980654826060654,-9.24723756,0.1494999999999997,5.16577272,0,0,1,1,16.0000004,1
0,BaEuYWO6,ABCDE6,151.60224220667226,7.207610539540379,15.160224220667226,-9.148832716,0.0,4.99098332,0,1,1,1,8.0000003,1
0,BaNpO3,ABC3,85.63207796094373,8.18954193461837,17.126415592188746,-9.31906119,0.0,7.05965834,0,1,1,1,3.0000002,0
5,Ca2ScNbO6,ABC2D6,251.87798378385588,4.140367139033671,12.593899189192792,-8.521399955,3.1457000000000006,5.33480551,1,0,0,0,2.57e-05,1
0,CaMgO3,ABC3,61.40444465533577,3.0390857534638096,12.280888931067157,-5.924580274,0.0,2.11586694,0,1,1,1,2.0050385,1
1,CaSmEuSbO6,ABCDE6,600.0860800040545,6.200209854411985,15.00215200010136,-8.051929198249999,0.0,6.00019523,0,1,1,1,27.984231,1
0,CaSmEuSbO6,ABCDE6,151.56803534443293,6.136946385630604,15.156803534443291,-7.967336899,0.1848999999999998,5.8378968,0,0,1,1,6.9999996,1
0,CdRuO3,ABC3,60.61615746211363,7.1630476902911004,12.123231492422724,-6.094784726,0.0,4.21447545,0,1,1,1,2.1207008,1
0,Cs2LiYBr6,ABC2D6,352.68697598485704,3.960024626623324,35.2686975984857,-4.152702437,4.0508,-0.47958333,1,0,0,0,0.0004708,1
0,Cs2RbAsI6,ABC2D6,516.6288902631002,3.8172492340089135,51.66288902631002,-2.849855636,2.286,0.30142951,0,0,0,0,0.002156,1
0,Cs2RbPbF6,ABC2D6,245.07105223766249,4.556479598989261,24.50710522376625,-4.551546590999999,0.0,0.31695571,0,1,1,1,0.9986212,1
0,Cs2ScAgCl6,ABC2D6,297.88328888849253,3.519453378749529,29.788328888849254,-4.355944921,3.3916,0.15871383,0,0,0,0,4.1e-06,1
0,CsInCl3,ABC3,334.5962553225378,3.5144908816190266,33.45962553225378,-3.655730465,1.7756999999999998,1.06735821,0,0,0,0,0.0,1
0,GaTeO3,ABC3,58.734493651861776,6.935710366037678,11.746898730372354,-5.39680263,0.0,7.07005765,0,1,0,0,0.0005189,1
0,K2InHgBr6,ABC2D6,363.6278235799857,3.986763395293981,36.36278235799857,-2.883772369,0.0,0.90658433,0,1,0,0,0.0001028,1
0,K2ScAgCl6,ABC2D6,283.89150375546967,2.5955178541498336,28.38915037554697,-4.338060501999999,3.248,-0.08740263,1,0,0,0,0.0002004,1
0,KHf2BiO6,ABC2D6,141.0163968031644,8.255276746392138,14.101639680316442,-8.420211333000001,0.8614999999999999,2.83381108,0,0,0,0,0.0,1
0,KLaMgWO6,ABCDE6,127.65802276604713,6.271606540740168,12.765802276604711,-7.855152608999999,2.7814999999999994,3.93670513,0,0,0,0,0.0,1
5,La2MgIrO6,ABC2D6,254.91195397034417,7.691007941857725,12.745597698517209,-7.9427691405,0.0,7.19075116,0,1,1,1,1.9999739,0
5,La5Sm3Ni7AgO24,AB3C5D7E24,462.5403720657693,7.353535389754452,11.563509301644231,-7.331882858749999,0.0,6.18074609,0,1,1,1,7.8453102,1
0,LiAcO3,ABC3,60.21066048006748,7.775550911967442,12.042132096013496,-6.582202892000001,0.0,4.23301205,0,1,1,1,2.0002079,1
1,LiMnO3,ABC3,183.1548558590623,3.984725537242191,9.157742792953115,-6.8745640015000005,0.0,1.93278815,0,1,1,3,8.0004667,1
2,NaSr8LaTi10O30,ABC8D10E30,605.9220597829063,4.991869634194961,12.118441195658129,-8.4677284388,1.8022,3.61697341,0,0,0,0,0.0001421,1
1,NdGaO3,ABC3,239.71243428239345,7.258699431487926,11.98562171411967,-7.581744754000001,3.4525,3.06144001,0,0,0,0,6e-06,0
0,NdGaO3,ABC3,95.05693542411396,4.576206098699859,19.011387084822797,-6.149087994,0.0,-0.12975548,0,1,1,1,1.9978381,0
0,Rb2GaAgBr6,ABC2D6,322.7163444234867,4.260226271088935,32.27163444234867,-3.162571743,0.3661,-0.22776166,0,0,0,0,0.0016281,1
0,Rb2LiTmCl6,ABC2D6,282.02798025,3.294422940126731,28.202798025,-4.411295939,5.2728,-0.77958333,1,0,0,0,0.0002084,1
0,Rb2NaFeF6,ABC2D6,159.8617524163987,3.778508561540681,15.98617524163987,-5.27334308,4.118600000000001,-1.98954041,0,0,1,1,4.9999623,0
0,Rb2TlGaI6,ABC2D6,461.8289248223424,4.337944928333724,46.18289248223424,-2.7250668750000004,1.0849,0.8142468,0,0,0,0,0.0012014,1
0,Rb3ScCl6,AB3C6,339.9304550927998,2.5112355984569694,33.99304550927998,-4.427126328,4.081,-1.48827681,0,0,0,0,0.0,1
0,Sm3InC,ABC3,186.24209499590955,5.152648080441193,37.24841899918191,-3.646163034,0.0,1.8098814,0,1,0,0,0.0056879,0
1,SmCuO3,ABC3,235.78125214601295,7.378061688081909,11.789062607300648,-7.1444364705,0.1217999999999999,2.94893204,0,0,0,0,0.0,1
0,SmCuO3,ABC3,55.266503874215694,7.869181607659484,11.05330077484314,-7.020050262,0.0,4.77890907,0,1,0,0,0.0056199,1
3,SmCuO3,ABC3,113.17609099040732,7.685406908840517,11.317609099040732,-7.110961194,0.0,4.29715684,0,1,0,0,0.0008517,1
0,Sr2TaInO6,ABC2D6,140.9485413887938,6.679951615775489,14.09485413887938,-7.827522313,4.0244,3.23961471,1,0,0,0,0.0,0
2,Sr2TaInO6,ABC2D6,138.28136732462005,6.8087946699355415,13.828136732462005,-7.859666377000001,3.9308,2.96031614,0,0,0,0,1.7e-06,0
5,Sr2TaInO6,ABC2D6,276.37526213197907,6.813413252172025,13.818763106598954,-7.8693952885,3.9813,6.74343843,0,0,0,0,0.0002353,0
5,Sr2TaInO6,ABC2D6,138.39888844108788,6.803012996683507,13.839888844108788,-7.864505330999999,3.7911000000000006,2.92317535,1,0,0,0,6.21e-05,0
5,Sr2YbRuO6,ABC2D6,277.7632976470929,6.520436715006345,13.888164882354644,-7.0527321855,0.0,2.73001223,0,1,1,1,4.0025653,0
0,SrEuNbWO6,ABCDE6,140.23460128832292,7.250653764293548,14.023460128832292,-9.318124501,0.0,5.32182178,0,1,1,1,9.9857463,1
0,TcSnO3,ABC3,63.24387741514354,6.950211234899953,12.648775483028707,-7.341659590000001,0.0,7.83660205,0,1,0,0,0.0003817,1
1,TlCrO3,ABC3,233.87374183496345,8.644508645260622,11.693687091748172,-7.067328762,0.4346000000000005,5.39025899,0,0,1,1,11.9996878,0
0,UHgO3,ABC3,78.90639189116675,10.240573700867028,15.781278378233347,-7.933140575999999,0.0,4.71858827,0,1,1,1,0.0345561,1
2,Ba2PrIrO6,ABC2D6,313.2641448642462,7.461089842438264,15.663207243212309,-7.3869592385,0.0,3.53400734,0,1,1,2,0.0426857,0
0,Ba2PrIrO6,ABC2D6,156.72622728833937,7.456607517727934,15.672622728833934,-7.388008605,0.0,3.56606194,0,1,1,1,2.0104893,0
5,Ba2PrIrO6,ABC2D6,320.4725878328112,7.293266313517238,16.02362939164056,-7.387241241,0.0,3.59255076,0,1,1,1,3.9993841,1
4,Ba2Sr(IrO3)3,AB2C3D9,858.1444585552756,8.38194681028062,14.302407642587928,-7.0694548841666665,0.0,4.67971785,0,1,1,1,9.2707589,1
4,Ba3SrNb2O9,AB2C3D9,515.0437521314634,5.3481475243411705,17.16812507104878,-8.075808681666667,3.4254999999999995,1.35157847,0,0,0,0,0.0019525,0
3,Ba3SrNb2O9,AB2C3D9,244.0133719820104,5.644219301416702,16.267558132134027,-8.054885641333334,2.8291000000000004,1.79208407,0,0,0,0,0.0004391,0
4,Ba3SrNb2O9,AB2C3D9,519.2363435310318,5.304963726455043,17.307878117701062,-8.060020420333334,3.2445,1.57267947,1,0,0,0,0.0026195,0
1,BaCaNdSbO6,ABCDE6,616.712357147196,5.809518216889444,15.4178089286799,-7.229755961499999,3.486,2.73027656,0,0,0,0,0.0,1
6,BaCaNdSbO6,ABCDE6,306.005862348203,5.8541389467738485,15.300293117410147,-7.2337238025,3.4966,2.76127065,0,0,0,0,0.0,1
0,BaCaNdSbO6,ABCDE6,158.37890049805415,5.655427683486606,15.837890049805416,-7.15132167,3.2332000000000005,2.95911502,1,0,0,0,0.0,1
0,BaCaZrSnO6,ABCDE6,144.84594595599137,5.5410409222954105,14.484594595599138,-7.681798447,3.7375,3.21781637,1,0,0,0,0.0,1
6,BaSrEuNbO6,ABCDE6,310.54857209998295,6.050943205162263,15.527428604999148,-8.583893243999999,0.0,2.20532378,0,1,1,1,11.9999988,1
1,BaSrEuNbO6,ABCDE6,620.4821165673901,6.056940956225436,15.512052914184752,-8.58043937375,0.0,2.34887708,0,1,1,1,23.9999992,1
0,BaSrEuNbO6,ABCDE6,158.38204613939612,5.932212072091115,15.838204613939611,-8.541118469,0.0,2.47903519,0,1,1,1,5.9999999,1
1,BaSrTbNbO6,ABCDE6,606.5320126988178,6.272483297360159,15.163300317470444,-8.246225132,2.9826,1.90554288,1,0,0,0,0.0,1
0,BaSrTbNbO6,ABCDE6,154.98714031322223,6.13673804045762,15.498714031322224,-8.221440476,2.867,1.96389534,1,0,0,0,0.0,1
5,Ca3LaMn4O12,AB3C4D12,226.34729065081416,4.921772357850165,11.317364532540708,-7.9905581165,0.0,4.57239529,0,1,1,1,13.000093,1
6,Ca3LaMn4O12,AB3C4D12,225.29544127619465,4.944750910577638,11.264772063809732,-7.978107167999999,0.0083999999999999,4.61745516,0,0,1,1,13.0001278,1
0,CoAgF3,ABC3,84.24074112678909,4.411440354630911,16.848148225357818,-3.983622284,0.0,0.40089884,0,1,1,1,2.8372664,1
0,CoAgF3,ABC3,66.1825258716729,5.615122723350054,13.236505174334578,-4.771893986,0.0,1.42538892,0,1,1,1,3.0031567,1
0,CoRhO3,ABC3,59.037908071244885,5.902010642739138,11.807581614248978,-6.311539472,0.0,3.21131229,0,1,1,1,4.2389291,1
0,Cs2KTaF6,ABC2D6,208.69323112093207,4.772891805756579,20.869323112093205,-5.578490787,0.0,3.9822171,0,1,1,1,2.0000095,1
0,Cs2LiGdCl6,ABC2D6,303.8073981630197,3.5129543111672774,30.38073981630197,-5.372070983,2.782,-0.64583333,1,0,1,1,7.0000003,1
0,K2TlHgBr6,ABC2D6,374.6073771859556,4.2669335244495015,37.46073771859556,-2.765617098,0.0,0.1621928,0,1,0,0,0.00082,1
6,K3(VS2)5,A3B5C10,384.6255216833035,2.9903797458383234,21.368084537961305,-6.281159415,0.0,4.00387329,0,1,1,1,7.9997991,1
0,K3VF6,AB3C6,178.5525303289477,2.624710263475194,17.855253032894773,-5.443344916,0.0,0.4652118,0,1,1,1,2.0014711,1
0,KBaCeMnO6,ABCDE6,145.80384688852183,5.324014104058248,14.580384688852185,-7.400110548000001,0.0,2.17607752,0,1,1,3,2.0000004,1
0,KPrMnWO6,ABCDE6,134.15441392103156,6.37185860407437,13.415441392103157,-8.284600995999998,1.3222999999999998,3.87512763,0,0,1,1,4.9999997,1
0,La3InB,ABC3,151.32988139970902,5.951142844799229,30.265976279941803,-5.017821616,0.0,7.04290865,0,1,0,0,0.0146699,0
1,LaMnO3,ABC3,250.01810854808264,6.424936465973004,12.500905427404131,-8.7482045255,0.5975000000000001,6.78000734,0,0,1,1,16.0025726,1
5,LaMnO3,ABC3,297.1410300410424,5.406020375383018,14.85705150205212,-8.45312061,1.4409,6.06134821,0,0,1,1,15.9994373,0
5,LaMnO3,ABC3,118.730205264436,6.7647085220922,11.8730205264436,-8.785513627,0.0,7.11506979,0,1,1,1,8.0128607,0
1,LaMnO3,ABC3,310.04857285439806,5.180963898577695,15.502428642719902,-8.293129757500001,0.5346999999999995,4.37359928,0,0,1,1,16.0044408,1
1,LaMnO3,ABC3,250.30489980781863,6.417574981542556,12.515244990390933,-8.746746991,0.0716000000000001,6.98303752,0,0,1,1,16.0001685,1
6,LaMnO3,ABC3,250.1558773215623,6.421398049741975,12.507793866078114,-8.7770562735,0.0,6.84602877,0,1,1,1,16.0019554,1
5,LaMnO3,ABC3,332.11459568010025,4.836735523395796,16.605729784005014,-8.503579954500001,1.6926,3.34439678,0,0,1,1,16.0003435,1
5,LaMnO3,ABC3,248.53597536865317,6.463251287389984,12.426798768432658,-8.7477814135,0.0,7.14716226,0,1,1,1,15.999964,1