Shape,formula_pretty,formula_anonymous,volume,density,density_atomic,energy_per_atom,band_gap,efermi,is_gap_direct,is_metal,is_magnetic,ordering,total_magnetization,theoretical
5,Sr2TaMnO6,ABC2D6,260.3794391017497,6.468225257052279,13.018971955087483,-8.514087896000001,1.3047,4.47990421,1,0,1,1,8.000058,1
2,Sr2TaMnO6,ABC2D6,519.7841573960703,6.480354741291992,12.994603934901756,-8.512449745000001,0.7905999999999995,3.46391548,0,0,1,2,0.0,1
0,Sr2ZnMoO6,ABC2D6,130.24422168375415,5.515215547027888,13.024422168375414,-7.065349886,2.3108,2.72990386,0,0,0,0,3.3e-05,0
2,Sr2ZnMoO6,ABC2D6,129.9849552138211,5.526216131391252,12.998495521382113,-7.079760439,2.4361,2.68058793,0,0,0,0,4.25e-05,0
2,Sr2ZnReO6,ABC2D6,128.93800907385904,6.733598901532848,12.893800907385904,-7.234548502,0.0,4.42940805,0,1,1,1,0.998952,0
5,Sr2ZnReO6,ABC2D6,257.3590969464634,6.747123739295516,12.86795484732317,-7.2368156145,0.0,4.54697413,0,1,1,1,1.9822762,0
0,SrCrSnBiO6,ABCDE6,129.43574742904755,7.226647123058655,12.943574742904756,-7.053197918,0.9519000000000002,5.27591215,1,0,1,1,3.0000005,1
4,YWO3,ABC3,422.5725917460829,7.562364940003576,14.085753058202764,-9.422868965,0.0,5.41145836,0,1,1,1,15.874261,1
1,YWO3,ABC3,262.56262280021065,8.113996116039354,13.128131140010533,-9.5931023435,2.2928999999999995,4.65574216,1,0,1,1,11.9986986,1
4,YWO3,ABC3,143.10874265346973,7.443403044832641,14.310874265346971,-9.407761546,0.0,5.16887145,0,1,1,1,5.5214355,1
0,YWO3,ABC3,69.09315987921504,7.708549244752746,13.818631975843008,-9.008857254,0.0,5.91575062,0,1,1,1,2.982423,1
0,BaEuNbSnO6,ABCDE6,151.44189818250814,6.544965809241918,15.144189818250814,-8.377232731,0.0,5.90948851,0,1,1,1,7.0134971,1
5,BaLa7Mg5Nb3O24,AB3C5D7E24,525.4317975997576,5.985337582766858,13.13579493999394,-8.306343492,2.902300000000001,5.14244696,1,0,0,0,0.0023499,1
6,BaLa7Mg5Nb3O24,AB3C5D7E24,527.3915581872344,5.963096368406568,13.18478895468086,-8.309105526,3.0726000000000004,5.11430726,0,0,0,0,0.0021196,1
3,BaSr7Co4(CuO6)4,AB4C4D7E24,472.6584049594073,5.707421879282607,11.816460123985184,-6.263244541,0.0,2.88516836,0,1,1,3,16.7054753,1
0,BaSrEuWO6,ABCDE6,162.43314480441808,6.713868132646744,16.243314480441807,-8.51411959,0.8266999999999998,4.23797985,0,0,1,1,6.9999999,1
0,BaSrEuWO6,ABCDE6,164.82742958921918,6.616342421318121,16.482742958921918,-8.571664251,0.0041999999999999,4.52742409,0,0,1,1,7.0,1
1,BaSrEuWO6,ABCDE6,639.6829423133396,6.81934528780218,15.99207355783349,-8.5791160655,0.0838999999999998,4.79150441,1,0,1,1,28.0000009,1
6,BaSrEuWO6,ABCDE6,316.2507755498224,6.8967717956863615,15.81253877749112,-8.0847058055,0.0072,4.53604821,0,0,1,3,0.0134458,1
1,BaSrEuWO6,ABCDE6,628.0666160899598,6.945471621320968,15.701665402248995,-8.61587564675,0.0103999999999997,4.75358674,1,0,1,1,27.9444089,1
2,BaSrEuWO6,ABCDE6,315.1382938083794,6.9211183535257135,15.75691469041897,-8.6100912825,0.0489000000000006,4.77032914,1,0,1,1,13.9999929,1
6,BaSrEuWO6,ABCDE6,317.2802858606119,6.874393167100719,15.864014293030596,-8.6010847255,0.2515,4.73091377,0,0,1,1,13.9999971,1
2,BaSrEuWO6,ABCDE6,317.8284831412938,6.862536068569787,15.89142415706469,-8.5693299915,0.2422000000000004,4.91200321,0,0,1,1,13.9999987,1
2,Ca8Mn7CrO22,AB7C8D22,451.6659221435747,4.077849057977735,11.885945319567757,-7.692440198157894,0.0,3.73659187,0,1,1,1,26.9999812,1
6,Ca8Mn7CrO22,AB7C8D22,1827.016177413922,4.0324228715716375,12.019843272460012,-7.758494636907895,0.0,3.19444018,0,1,1,1,108.0000015,1
1,CaPrTi2O6,ABC2D6,239.37643221236564,5.171015008067009,11.96882161061828,-8.813064407999999,0.0,6.44117526,0,1,0,0,0.1547141,1
0,CdOsO3,ABC3,61.29977114342224,9.498405606100684,12.259954228684448,-6.441248956,0.0,4.74971893,0,1,0,0,0.0344059,1
0,Cs2AgAuBr6,ABC2D6,330.8567455892455,5.270201492282821,33.08567455892455,-2.978646814,0.0,0.68147156,0,1,0,0,0.0004873,1
0,Cs2AgSbBr6,ABC2D6,368.2949273693936,4.395385730695127,36.829492736939365,-3.2677720109999995,1.1916000000000002,0.84187435,0,0,0,0,0.0004946,1
0,Cs2BrCl6F,ABC2D6,285.5002681150682,3.358481061618281,28.550026811506815,-2.8469514190000003,0.9489,0.3376384,1,0,0,0,0.0007285,1
0,Cs2NbAgF6,ABC2D6,197.9343922047591,4.870649093972323,19.79343922047591,-5.259772962,0.0,3.06365344,0,1,1,1,1.9966691,1
2,CsHgBr2Cl,ABCD2,175.59946525423226,5.0001333650165645,35.11989305084645,-2.641546334,0.0,-0.07221316,0,1,0,0,0.0093715,1
0,CsHgF3,ABC3,97.04743386104975,6.681526473864588,19.409486772209952,-3.638687946,0.7228,-0.75456646,0,0,0,0,0.0,0
1,DyTiO3,ABC3,234.6608141181569,7.313117184258952,11.733040705907849,-9.103798283,0.0,6.69881803,0,1,1,1,3.9904202,1
0,K2AgBiI6,ABC2D6,448.95228043357406,4.277441172111274,44.895228043357406,-2.805651741,0.8096000000000001,1.25333984,0,0,0,0,0.002803,1
0,K2LiLaCl6,ABC2D6,302.493155691269,2.397604064289084,30.2493155691269,-4.451678107999999,4.554,-0.61097684,1,0,0,0,0.0011401,1
0,KAgF3,ABC3,80.24753755772119,4.220520618937506,16.04950751154424,-4.054930302,0.0,-0.35741808,0,1,0,0,9.72e-05,1
1,KAgF3,ABC3,315.2824008707714,4.296927274670757,15.764120043538572,-4.056807444,0.0,-0.94828072,0,1,0,0,7.01e-05,0
0,KLaCuWO6,ABCDE6,127.64126685160574,6.782932553282295,12.764126685160573,-7.572774787,0.0,5.05354407,0,1,1,1,0.9999999,1
0,KLaEuSbO6,ABCDE6,150.97615553237677,6.024245211430185,15.097615553237675,-7.644202598,0.0,4.26875515,0,1,1,1,6.0000002,1
1,KLaEuSbO6,ABCDE6,791.3068282665337,4.597545980986832,19.782670706663342,-7.365208308750001,0.0,1.53255739,0,1,1,3,1.1653221,1
0,KLaTbBiO6,ABCDE6,159.22561866635357,6.694336415017207,15.922561866635355,-6.996920136,1.9221,3.24523867,1,0,0,0,0.0,1
1,KLaTbBiO6,ABCDE6,627.4705308801424,6.794963618429572,15.68676327200356,-7.109525394,1.7048,3.11342535,1,0,0,0,0.0,1
0,KRb2AlI6,ABC2D6,464.615177864234,3.5684421326289795,46.4615177864234,-2.913167081,1.7559,0.6275,1,0,0,0,0.0014433,1
3,La7SmMn7CuO24,ABC7D7E24,484.951530759534,6.693484316999665,12.123788268988353,-8.50420315275,0.0,7.56891999,0,1,1,3,25.9993848,1
0,LiErO3,ABC3,48.84467197755944,7.553920963942889,9.768934395511888,-6.500061525999999,0.0,2.79050814,0,1,1,3,1.9999748,1
5,LiLa2RuO6,ABC2D6,254.3017403775872,6.292353134401719,12.71508701887936,-7.9366468095,0.1880999999999995,5.95357846,0,0,1,1,5.9949063,0
0,MgBO3,ABC3,37.83958725006121,3.647354163171599,7.567917450012241,-6.330713882,0.2542999999999997,5.62488726,0,0,0,0,0.0040551,1
5,MgBO3,ABC3,417.8595139301743,2.6423115231454246,10.446487848254357,-7.16188117775,0.1887999999999999,0.91993811,0,0,1,1,8.0040719,0
0,Rb2LiBiBr6,ABC2D6,354.6203095710698,4.056432765774867,35.46203095710698,-3.403387211,2.9149,-0.5525,0,0,0,0,0.0003212,1
0,Sr2SmUO6,ABC2D6,170.95958935109996,6.406973722448803,17.095958935109998,-8.407477412999999,0.6715999999999998,5.25845554,0,0,1,1,0.9999565,1
5,Sr2YRuO6,ABC2D6,282.584622226224,5.420400820723878,14.1292311113112,-7.727889643,0.0,3.25034712,0,1,1,1,5.9992088,0
5,Sr5Ca3Fe2(CoO4)6,A2B3C5D6E24,458.7133340014408,5.095533920246653,11.46783335003602,-6.83654475175,0.0,2.98203496,0,1,1,1,26.4132904,1
0,SrEuCrInO6,ABCDE6,129.84616960636967,6.424877196023573,12.984616960636966,-7.835616111999999,0.0,3.81668938,0,1,1,1,8.0000003,1
5,SrNdNiRuO6,ABCDE6,244.3152560536216,6.628444426312027,12.21576280268108,-7.499842914999999,0.0442999999999997,4.41185468,1,0,1,1,10.002843,1
1,SrZrS3,ABC3,461.5351916601778,3.958207413790184,23.07675958300889,-6.6073160515,0.5511999999999997,3.75582708,1,0,0,0,0.0,0
1,SrZrS3,ABC3,474.6162826351481,3.849113661274756,23.73081413175741,-6.608256288,1.1777000000000002,2.90246007,1,0,0,0,0.0,0
5,TlCr5Te8,AB5C8,376.9242490585771,6.542886312991884,26.92316064704122,-5.869085385714286,0.0,5.68066265,0,1,1,1,15.0005605,1
6,TlCr5Te8,AB5C8,384.748676135932,6.4098271499414015,27.48204829542372,-5.866228887142857,0.0,5.51509552,0,1,1,1,15.0162876,1
0,BaCaDySbO6,ABCDE6,148.77650411969668,6.224225700920019,14.877650411969668,-7.241578868,3.3728,3.08757523,1,0,0,0,0.0,1
0,BaCaSmFeO6,ABCDE6,134.31679467051347,5.929304416063621,13.431679467051348,-7.196332099999999,0.6061000000000001,2.84963081,0,0,1,1,3.0000002,1
0,BaCaSmFeO6,ABCDE6,141.8803626306832,5.613216297342299,14.18803626306832,-7.245801806,0.1972,2.36347219,0,0,1,1,3.0000003,1
0,BaSrNdWO6,ABCDE6,160.45059777607847,6.716908798431229,16.045059777607847,-8.053854778,0.0,4.95624411,0,1,1,1,1.0,1
1,BaSrNdWO6,ABCDE6,632.1562550948488,6.81940278676188,15.80390637737122,-8.153130402,1.8901,3.42514008,1,0,1,1,4.0,1
6,BaSrNdWO6,ABCDE6,314.8876511683812,6.845184483524833,15.744382558419058,-8.1621085225,2.0977,3.2603701,0,0,1,1,2.0,1
0,CaEuZnWO6,ABCDE6,129.1601164483537,6.907602301897064,12.91601164483537,-8.206570418,0.4771000000000001,5.39551577,0,0,1,1,7.0000001,1
5,CaLaMnCrO6,ABCDE6,231.0761216467958,5.488954353829075,11.55380608233979,-8.400211771,0.0,5.91571084,1,1,1,3,6.5e-06,1
0,Cs2AlAgBr6,ABC2D6,327.09378201600464,4.467877443626806,32.709378201600465,-3.375078051,1.4697,0.13856739,1,0,0,0,0.0005722,1
1,EuUO3,ABC3,313.7224264316142,9.273182759053237,15.68612132158071,-10.778753366,0.0,7.60614133,0,1,1,3,21.1114662,1
5,GdFe4(BiO4)3,AB3C4D12,246.0647419561813,8.095117037294516,12.303237097809069,-7.870315103999999,1.6060999999999996,6.30908295,1,0,1,1,27.0,1
0,K3AuCl6,AB3C6,327.1214161417567,2.6750617733674025,32.71214161417567,-3.2924402450000003,0.1652,-0.42855129,0,0,1,1,1.9969687,1
0,KCaLaWO6,ABCDE6,145.18762836848651,5.6947866877233375,14.518762836848651,-7.882383629,2.2667,3.17149638,0,0,0,0,0.0,1
1,KCaLaWO6,ABCDE6,618.9307572032358,5.343489969644427,15.473268930080897,-7.903457954249999,2.8899000000000004,2.63614017,1,0,0,0,0.0,1
0,KCaLaWO6,ABCDE6,158.9605506601567,5.201369583970746,15.896055066015672,-7.85205245,2.9186,2.49848416,0,0,0,0,0.0,1
2,KCuF3,ABC3,194.379792220748,2.7275226425040957,19.437979222074794,-4.417160947,0.0,-0.89745349,0,1,0,0,0.0063919,0
2,KCuF3,ABC3,135.10356227752663,3.924213955500726,13.510356227752665,-4.54848816,0.0,0.88815155,0,1,0,0,0.0107941,0
0,KCuF3,ABC3,127.64948446306602,4.1533680042455,12.7649484463066,-4.548677251999999,0.0,0.81343472,0,1,0,0,0.0093765,1
2,KCuF3,ABC3,132.2511341125257,4.008852461531502,13.22511341125257,-4.5508758,0.0,0.79053481,0,1,1,2,0.000266,0
2,KCuF3,ABC3,131.74277485354102,4.024321524400329,13.174277485354102,-4.547111701,0.0,0.70132585,0,1,1,1,1.9988862,0
1,KEuBiWO6,ABCDE6,609.5209845036932,7.408872441260519,15.23802461259233,-8.0717163815,0.1018999999999996,5.09084129,1,0,1,1,27.9999982,1
0,KEuBiWO6,ABCDE6,155.8903144133658,7.242052274788741,15.589031441336582,-8.04971305,0.7314999999999996,4.635015,1,0,1,1,7.0,1
0,KLaVWO6,ABCDE6,130.01106106564407,6.498307393848695,13.001106106564407,-8.423109865,0.5106000000000002,6.2065743,0,0,1,1,2.9999995,1
2,KRb2ScF6,ABC2D6,179.13965247329674,3.4202706115109405,17.913965247329674,-5.657269791999999,6.517799999999999,-2.6764488,0,0,0,0,0.2120731,0
5,KRb2ScF6,ABC2D6,359.61139307837345,3.407601096649167,17.98056965391867,-5.6596451615,6.5991,-2.78547201,0,0,0,0,0.0028375,0
0,KRb2ScF6,ABC2D6,194.6010379841262,3.148524257926512,19.46010379841262,-5.648091754,6.3813,-2.81731874,1,0,0,0,0.0,0
0,La2ZrNiO6,ABC2D6,133.10732623705698,6.533565172559325,13.310732623705698,-8.533204111,1.9201000000000008,6.78877514,0,0,1,1,2.0027138,1
6,LiLa2Co2Sb2(PbO6)2,AB2C2D2E2F12,286.06069081226974,7.270753865523534,13.62193765772713,-6.878006432857143,0.0,7.17770915,0,1,1,1,5.0018516,1
6,LiLa2Co2Sb2(PbO6)2,AB2C2D2E2F12,284.7166005655666,7.305077643404476,13.557933360265077,-6.922362272380953,0.0,7.11129795,0,1,1,1,5.0095032,1
6,LiLa2Co2Sb2(PbO6)2,AB2C2D2E2F12,281.32502648193105,7.393145570826879,13.396429832472908,-6.885808175714286,0.0784000000000002,7.75344804,0,0,1,1,4.9872261,1
6,LiLa2Co2Sb2(PbO6)2,AB2C2D2E2F12,287.2225578340867,7.241342355495205,13.677264658766031,-6.897680813809524,0.5079000000000002,7.32308306,0,0,1,1,4.9965161,1
6,LiLa2Co2Sb2(PbO6)2,AB2C2D2E2F12,284.90783323221024,7.300174410446861,13.567039677724296,-6.869953292857144,0.0,7.70950783,0,1,1,1,4.9911841,1
6,LiLa2Co2Sb2(PbO6)2,AB2C2D2E2F12,284.9786896700023,7.298359312080788,13.570413793809635,-6.868271387619048,0.0195999999999996,7.50089572,1,0,1,1,5.0023067,1
6,LiLa2Co2Sb2(PbO6)2,AB2C2D2E2F12,286.0484052227515,7.271066139585717,13.621352629654831,-6.885715496666667,0.0154999999999994,7.29397447,0,0,1,1,5.0123911,1
6,LiLa2Co2Sb2(PbO6)2,AB2C2D2E2F12,285.66607924195404,7.280797492711847,13.60314663056924,-6.87734163,0.0,7.33275551,0,1,1,1,5.0174231,1
6,LiLa2Co2Sb2(PbO6)2,AB2C2D2E2F12,297.551627112182,6.989969753092609,14.169125100580091,-6.896998525238096,0.2215999999999995,6.04014037,0,0,1,1,5.0367288,1
1,MgWO3,ABC3,227.32519104929565,7.484182255044539,11.36625955246478,-8.259686503000001,2.4380000000000006,6.78248692,1,0,1,1,7.9997314,1
5,MgWO3,ABC3,68.50902686479888,6.208463463994726,13.701805372959775,-7.943855864000001,1.0761000000000005,4.58601425,0,0,1,1,1.9999175,1
0,NaAgO3,ABC3,69.5491383976443,4.270328335252566,13.90982767952886,-4.212660156,0.0,0.01675495,0,1,1,1,1.6668462,1
0,Rb2NaPrI6,ABC2D6,491.782946960998,3.701597018599848,49.1782946960998,-3.352481028,3.112,0.1675,1,0,0,0,0.0017729,1
0,Sm3PbC,ABC3,195.9032708549087,5.681599334566553,39.18065417098174,-3.838206856,0.0,1.90111181,0,1,0,0,0.0034647,0
0,Sr2EuVO6,ABC2D6,142.6403494347289,5.519694470618406,14.26403494347289,-8.142977396000001,0.0,2.71094071,0,1,1,1,5.9999998,1
0,Sr2GdCrO6,ABC2D6,139.51824645870926,5.71867825405735,13.951824645870923,-8.504084202,0.0,2.57100336,0,1,1,3,6.0,1
5,Sr3Ca5TiMn7O24,AB3C5D7E24,454.2886784382368,4.6775108571411,11.35721696095592,-7.718655775499999,0.0,3.23455526,0,1,1,1,21.5339376,1
6,Sr3La7Ti3Mn7O30,A3B3C7D7E30,621.4624215901437,5.994194031128086,12.429248431802874,-8.6689892198,0.0,6.35210249,0,1,1,1,27.9995433,1
3,Sr4Fe2CoNiO12,ABC2D4E12,238.2824714639213,5.378433561274881,11.914123573196065,-6.833500947999999,0.0,2.73832984,0,1,1,1,13.1804336,1
6,Sr6La14Mn17(SnO20)3,A3B6C14D17E60,1254.8254423457938,6.246662171717446,12.54825442345794,-8.2922955114,0.0,6.12796923,0,1,1,1,65.0000414,1
2,SrCeEuSbO6,ABCDE6,308.5855452881414,6.429981623823787,15.429277264407071,-8.1271700525,0.0,6.47504821,0,1,1,3,11.9921455,1
0,SrEuTiSnO6,ABCDE6,129.7919722082069,6.424526618215278,12.979197220820687,-8.406921778000001,0.2790000000000008,6.75892521,1,0,1,1,7.0042776,1
1,TbMnO3,ABC3,224.7758055110435,7.738046495726133,11.238790275552176,-8.7593693125,0.0,3.8929842,1,1,1,1,16.0000011,0
1,TbMnO3,ABC3,270.82295315671564,6.422371567421256,13.541147657835785,-8.445132787999999,0.9345,2.07192184,1,0,1,1,16.0048208,0
1,UCrS3,ABC3,394.1513610207951,6.508498798498949,19.707568051039758,-8.052770542500001,0.0,7.68612465,0,1,1,1,24.0000006,0
0,UReO3,ABC3,63.10483032393257,12.42635760544446,12.620966064786511,-9.562426534,0.0,10.00309391,0,1,1,3,1.882063,1
0,BaCaEuSbO6,ABCDE6,150.99160450561897,6.017043821766541,15.099160450561897,-7.545794334,0.0,2.84423932,0,1,1,1,6.0000003,1
1,BaCaEuSbO6,ABCDE6,600.4833438203563,6.051945389519082,15.012083595508908,-7.625571809749999,0.0,3.21401036,0,1,1,1,23.9999994,1
1,BaCaEuSbO6,ABCDE6,602.0576396167824,6.036120406062373,15.05144099041956,-7.629664931000001,0.0,2.90105598,0,1,1,1,24.0000043,1
6,BaCaEuSbO6,ABCDE6,304.5892880274064,5.965561736678044,15.229464401370318,-7.6238756715,0.0,3.0163277,0,1,1,1,11.9999994,1
0,BaCaEuSbO6,ABCDE6,154.3468800349913,5.886242085510147,15.43468800349913,-7.552071058,0.0,3.35629329,0,1,1,1,6.0000001,1
1,BaSrSmSbO6,ABCDE6,621.3031755183006,6.340253734251933,15.532579387957515,-7.24786183075,3.5046,2.83822223,1,0,0,0,0.0,1
6,BaSrSmSbO6,ABCDE6,309.902148553232,6.355586427962193,15.4951074276616,-7.251117298,3.6073,2.74816916,0,0,0,0,0.0,1
0,BaSrSmSbO6,ABCDE6,157.22772620846797,6.263557760575073,15.722772620846795,-7.226726664,3.5020999999999995,2.84697353,1,0,0,0,0.0,1
0,Ca2VSbO6,ABC2D6,131.35647995856877,4.410026286243987,13.135647995856877,-7.111499196,0.0,6.21853018,0,1,0,0,0.0004705,1
6,CaLa2CoO6,ABC2D6,529.9316919643029,5.926300771858478,13.248292299107572,-7.797424018000001,0.0117000000000002,6.46968672,0,0,1,1,4.0003141,1
3,CaLa2CoO6,ABC2D6,263.4029496363944,5.961464363735413,13.17014748181972,-7.7996998265,0.1054000000000003,5.88860687,0,0,1,2,3e-06,1
6,CaLa2CoO6,ABC2D6,529.3143283437488,5.933212888733258,13.23285820859372,-7.784863104,0.7228000000000003,5.11912057,0,0,1,3,2.0101912,1
0,CaZrNbInO6,ABCDE6,140.88089297527037,5.127539340467832,14.088089297527038,-8.238177242999999,0.5202,4.51942569,0,0,0,0,0.0,1
1,CoTeO3,ABC3,247.80538862775015,6.286361178799385,12.390269431387509,-6.424383083,0.0,5.97101759,0,1,1,1,11.9994146,0
0,CoTeO3,ABC3,53.98362278600855,7.214198003818167,10.79672455720171,-5.758078242000001,0.0,7.41520338,0,1,1,1,0.3665543,1
0,Cs2GaHgI6,ABC2D6,430.167245937374,5.008827817817374,43.0167245937374,-2.480748906,0.0,1.93575587,0,1,0,0,0.0010934,1
0,Cs3PdF6,AB3C6,230.44381267658105,4.461322632004837,23.044381267658103,-4.388375321,0.0,0.54214957,0,1,1,1,1.0003089,1
0,Eu2DyMnO6,ABC2D6,134.459960806345,7.624235884247096,13.4459960806345,-9.351166942,0.0,2.87572692,0,1,1,1,16.0000002,1
0,EuZrCrBiO6,ABCDE6,132.33388413628484,7.530880146081642,13.233388413628484,-8.875378042,0.0,5.48657201,0,1,1,1,9.8635033,1
0,GePdO3,ABC3,53.483516561437256,7.049630161449204,10.69670331228745,-5.8652823220000005,0.0,4.57361115,0,1,1,1,2.0008729,1
0,K2CeAgCl6,ABC2D6,326.37154071934964,2.7418521491534147,32.637154071934965,-4.310832594,2.8498,2.64300474,0,0,1,1,0.998776,1
0,K2CuSbCl6,ABC2D6,277.4540071860125,2.850140528298552,27.745400718601253,-3.713579128,0.6278999999999999,2.42908925,0,0,0,0,4.6e-05,1
0,K2MnHgF6,ABC2D6,172.5168043655793,4.30942572547304,17.25168043655793,-4.924783195,0.3587,0.58970917,0,0,1,1,4.9999557,1
0,KEuMgWO6,ABCDE6,127.1650734977874,6.466438206314362,12.71650734977874,-8.174347541,0.0,2.26103484,0,1,1,1,6.0003978,1
0,MgBiO3,ABC3,60.95774362961122,7.662396584623495,12.191548725922244,-5.71506759,0.0,4.58856092,0,1,1,1,0.9979262,1
1,MgBiO3,ABC3,267.46913094087574,6.98521590062872,13.373456547043787,-6.0475375975,0.0,4.80486488,0,1,0,0,0.000368,1
0,NaEuTiSnO6,ABCDE6,127.06831736690002,5.717640497202373,12.706831736690004,-8.015826607,0.0,3.35711543,0,1,1,1,5.9999919,1
0,NaNdHf2O6,ABC2D6,137.69753727995163,7.479290587601913,13.769753727995164,-9.091403624,2.8337,2.31258811,1,0,0,0,0.0,1
0,NaSrFeBiO6,ABCDE6,137.70867885376595,5.68468555892021,13.770867885376598,-6.26777195,0.0,2.33331265,0,1,1,1,5.8838572,1
0,NdEu2NbO6,ABC2D6,613.718299913663,6.894917356098318,15.342957497841576,-9.83310717025,0.0770999999999997,4.73462699,1,0,1,1,55.9997557,1
0,NdEu2NbO6,ABC2D6,158.79993200985166,6.661742395405041,15.879993200985163,-9.727502736,0.4240000000000004,4.16209426,1,0,1,1,13.9999997,1
0,Rb2NaCeF6,ABC2D6,196.0960135882848,3.793928669104544,19.60960135882848,-5.569852987,0.2801999999999998,3.83296745,0,0,1,1,0.9981598,1
0,Rb2ScCuCl6,ABC2D6,262.4292234521432,3.114148050160116,26.24292234521432,-4.427800449999999,1.8951,1.84803941,0,0,0,0,0.0010945,1
0,Rb3AuCl6,AB3C6,347.72084569777184,3.1808995865554373,34.772084569777185,-3.276765231,0.1947,-0.34882771,0,0,1,1,1.9988631,1
0,SiBO3,ABC3,42.97268208926432,3.35776211805348,8.594536417852863,-6.38929876,0.0,5.53951206,0,1,0,0,0.0613221,1
0,SiBO3,ABC3,37.13464487955602,3.885644914566695,7.426928975911204,-6.378583398,0.0,8.19284342,0,1,0,0,0.0001585,1
0,SmEuHfFeO6,ABCDE6,130.8801918492545,8.026799109566202,13.088019184925448,-9.429050442,0.0,5.73935947,0,1,1,1,11.882995,1
0,Sr2GdNbO6,ABC2D6,598.3444595462856,5.7879241057212765,14.95861148865714,-9.1389814075,2.8344000000000005,1.99790654,1,0,1,1,28.0000019,1
0,Sr2GdNbO6,ABC2D6,153.690301854567,5.63336183080996,15.3690301854567,-9.081989598,2.5504,2.28293118,1,0,1,1,7.0000002,1
0,Sr2LaCrO6,ABC2D6,148.3426546001943,5.173145616225299,14.834265460019427,-7.51592683,0.0,3.5566793,0,1,1,1,1.0002377,1
0,Sr2LiReO6,ABC2D6,125.89237887715667,6.125298806785223,12.589237887715669,-7.481526617,1.5935,2.24746067,0,0,0,0,0.0006466,0
2,Sr2LiReO6,ABC2D6,127.17159722661064,6.063684462069825,12.717159722661064,-7.492308652,1.8424,1.90945298,0,0,0,0,0.0001602,0