Shape,formula_pretty,formula_anonymous,volume,density,density_atomic,energy_per_atom,band_gap,efermi,is_gap_direct,is_metal,is_magnetic,ordering,total_magnetization,theoretical
0,SrEuYWO6,ABCDE6,148.19275086957288,6.816456928128212,14.819275086957289,-9.107421772,0.0,5.03650182,0,1,1,1,8.0000002,1
3,SrLa3Mn4O12,AB3C4D12,488.8801459714768,6.223156938629218,12.222003649286918,-8.516204968,0.0,6.14257147,0,1,1,1,29.9998223,1
5,SrLa3Mn4O12,AB3C4D12,243.8760216557515,6.237550235371224,12.193801082787576,-8.517020497,0.0,6.20522584,0,1,1,1,15.0054817,1
0,SrLa3Mn4O12,AB3C4D12,242.3198547701337,6.277607494124824,12.115992738506684,-8.4899805475,0.0,6.63049058,0,1,1,1,15.0001539,1
5,SrLa3Mn4O12,AB3C4D12,242.00021765131325,6.285899041925823,12.100010882565662,-8.4784613215,0.0,6.83404968,0,1,1,1,14.9999452,1
1,SrNiO3,ABC3,237.62582013820384,5.431430013891443,11.881291006910192,-6.2211368685,0.0,2.76648895,0,1,1,3,0.0009314,1
3,SrNiO3,ABC3,238.47903102811648,5.4119978851391926,11.923951551405825,-6.2194994765,0.0,2.73717073,0,1,1,3,0.003407,1
5,SrNiO3,ABC3,57.02413804031096,5.658340730472058,11.404827608062192,-6.203257982,0.0,3.08678202,0,1,1,3,0.0008,1
1,SrNiO3,ABC3,236.18963103060796,5.464456699231451,11.809481551530396,-6.2252305455,0.0,2.78406526,0,1,1,3,0.0333281,1
1,SrNiO3,ABC3,235.068733435189,5.490513318012392,11.753436671759449,-6.2143859635,0.0,2.85315857,0,1,1,3,9e-07,1
0,SrNiO3,ABC3,118.50465607365828,5.445558235163306,11.850465607365829,-6.22725944,0.0,2.92452991,0,1,1,3,0.0173007,1
0,SrPrZnBiO6,ABCDE6,139.70164050918956,7.118879761270708,13.970164050918957,-6.398511293,0.0,3.65447141,0,1,0,0,0.0,1
5,SrTiFe4Bi4O15,ABC4D4E15,331.81655618192207,7.180195000440198,13.272662247276882,-7.314997814000001,1.8761,5.98794861,0,0,1,1,20.003758,1
0,Ti3AlN,ABC3,69.78230623535126,4.3924836897117165,13.956461247070251,-8.171581216,0.0,7.20784907,0,1,0,0,7.99e-05,0
0,BaNaSbWO6,ABCDE6,151.14270093826042,6.173495404237933,15.11427009382604,-7.253385906,1.3942999999999994,4.39867557,1,0,0,0,0.0,1
0,BaSnO3,ABC3,71.13628093297905,7.097114448493584,14.22725618659581,-6.741954234,0.3723999999999998,4.12362011,0,0,0,0,0.0,0
1,BaSnO3,ABC3,147.10169950504223,6.864126368631641,14.710169950504223,-6.741308211000001,0.6650999999999998,4.05585794,1,0,0,0,3.54e-05,1
6,BaSrDyNbO6,ABCDE6,302.0583936829202,6.336862975712973,15.102919684146013,-8.2560643195,3.0423,1.77355763,0,0,0,0,0.0,1
1,BaSrDyNbO6,ABCDE6,604.4533930900946,6.333334127375246,15.111334827252364,-8.254621205,2.9792,1.91425767,1,0,0,0,0.0,1
0,BaSrDyNbO6,ABCDE6,153.65495100358856,6.228574604758187,15.365495100358856,-8.232254553,2.8763,2.04472031,1,0,0,0,0.0,1
0,BaSrTbBiO6,ABCDE6,163.3379018344145,7.00303427265035,16.33379018344145,-6.961880386,1.9042,2.43413674,1,0,0,0,0.0,1
1,BaSrTbBiO6,ABCDE6,645.1762341264642,7.091773466317666,16.129405853161607,-6.99992155525,1.8169,2.28346383,1,0,0,0,0.0,1
5,CaLaCrCuO6,ABCDE6,233.41185587001087,5.5565042755303375,11.670592793500544,-7.493722421999999,0.0,5.04419534,0,1,1,1,4.9312727,1
1,CaSnS3,ABC3,124.56235415941735,3.3991749407447798,24.912470831883475,-4.778053584,0.0,4.02583803,0,1,0,0,0.0001266,1
3,CaSnS3,ABC3,245.89291981375573,3.4438505438836264,24.58929198137557,-5.000754142,1.6173000000000002,3.24057982,0,0,0,0,0.0003628,1
5,CaSnS3,ABC3,1700.5627281387194,2.987782049879168,28.342712135645325,-4.931923421166667,1.4207999999999994,2.7148974,1,0,0,0,0.0356688,1
5,CaSnS3,ABC3,630.1849156487176,3.3594046945967184,25.207396625948704,-4.8178804836,0.0,3.79280978,0,1,0,0,0.0054184,1
1,CaSnS3,ABC3,131.57279279396633,3.218060693458842,26.314558558793266,-4.578066252,0.0,3.98512634,0,1,0,0,1.6e-06,1
4,CaSnS3,ABC3,501.3774637944209,3.377967805848391,25.06887318972105,-4.619688876500001,0.0,4.0812293,0,1,0,0,0.0008729,1
1,CaSnS3,ABC3,237.9532205990824,3.5587602618100527,23.79532205990824,-4.908704038,0.7142,4.45128786,0,0,0,0,5.93e-05,1
3,CaSnS3,ABC3,387.99217183951856,3.273848780077953,25.86614478930124,-4.7039865160000005,0.0,3.73867162,0,1,0,0,5.8e-06,1
1,CaSnS3,ABC3,514.5442982539549,3.2915279345677857,25.727214912697747,-4.956830102,1.584,3.03883436,0,0,0,0,0.004626,1
1,CaSnS3,ABC3,777.3925338958659,3.267918440355781,25.913084463195528,-4.82186684,0.2672000000000003,3.85478622,1,0,0,0,0.0002992,1
5,CaSnS3,ABC3,763.1222389932685,3.3290281256442533,25.437407966442283,-4.890827036999999,0.3516000000000003,3.93109807,0,0,0,0,0.0046593,1
5,CaSnS3,ABC3,1095.1147273793472,3.0930767141236637,27.37786818448368,-4.92024090025,1.3995000000000002,4.1146802,1,0,0,0,0.0021511,1
2,CaSnS3,ABC3,2809.419067078957,3.0142119969243315,28.094190670789573,-4.9091017564,0.3010999999999999,2.58288344,0,0,0,0,0.0,1
0,CaSnS3,ABC3,125.83547952155796,3.364784196227661,25.167095904311594,-4.59286501,0.0,4.09650388,0,1,0,0,0.0148375,1
1,CaSnS3,ABC3,527.0690954827661,3.2133110170767902,26.353454774138307,-4.8131802415000005,0.0,3.01960754,0,1,0,0,0.0022672,1
6,CaSnS3,ABC3,883.993703306268,2.87383879252932,29.4664567768756,-4.887189198333333,1.1208,2.38426557,0,0,0,0,0.0034057,1
3,CaSnS3,ABC3,235.5703956907269,3.594757580445284,23.557039569072693,-4.877091551,0.3979999999999997,4.21123131,1,0,0,0,0.0003806,1
5,CaSnS3,ABC3,1629.5220744870371,3.11803741316352,27.15870124145062,-4.8603325181666674,0.0,3.40389682,0,1,0,0,7.46e-05,1
3,CaSnS3,ABC3,373.4980460297501,3.4008951638676748,24.899869735316678,-4.637990930666667,0.0,4.22689153,0,1,0,0,0.3175853,1
0,CaSnS3,ABC3,141.03626094188232,3.00213030316611,28.207252188376465,-4.067921308000001,0.0,2.42008068,0,1,1,1,2.004433,1
6,CaSnS3,ABC3,2491.749258894472,3.058640897969417,27.686102876605243,-4.851595037666666,0.0,3.01012573,0,1,0,0,0.0022827,1
5,CaSnS3,ABC3,1790.7564626008498,2.8372985941633995,29.845941043347494,-4.964343833333333,1.7351,1.93739835,1,0,0,0,0.0790826,1
1,CaSnS3,ABC3,466.99045618656936,3.6267056614082898,23.34952280932847,-4.8596792995,0.2488000000000001,4.69783307,1,0,0,0,0.0009971,1
2,CaSnS3,ABC3,2797.241358211792,3.0273342811543653,27.97241358211792,-4.9096085689,0.2654000000000001,2.66595604,0,0,0,0,0.0050021,1
5,CaSnS3,ABC3,252.0584884446196,3.3596109810195585,25.20584884446196,-4.96440673,0.3999999999999999,3.42783081,0,0,0,0,0.0031326,1
1,CaSnS3,ABC3,475.39592434803626,3.5625819333603785,23.76979621740181,-4.9400641805,0.8479000000000005,3.86275335,1,0,0,0,0.0003046,1
6,CaSnS3,ABC3,812.6798833796337,3.1260222491891847,27.08932944598779,-4.982966499,1.8767,4.46986311,1,0,0,0,0.0015329,1
6,CaSnS3,ABC3,2460.235743879509,3.0978194710404465,27.33595270977232,-4.889342990111111,0.0,2.93515943,0,1,0,0,0.0499758,1
1,CaSnS3,ABC3,132.86149795375115,3.1868467489825814,26.57229959075023,-4.597851624,0.0,3.54299298,0,1,0,0,2.1e-06,1
4,CaSnS3,ABC3,401.51073492207297,3.163620765215991,26.7673823281382,-4.845566586,0.0001000000000002,3.15235701,1,0,0,0,0.0018814,1
6,CaSnS3,ABC3,893.9766403828442,2.841746956414052,29.799221346094804,-4.964158504666667,1.7213,3.41380076,0,0,0,0,8.25e-05,1
5,CaSnS3,ABC3,5583.926635824841,0.1516528638117836,558.392663582484,-2.199625215,0.0442,-3.88436743,1,0,1,1,11.5698615,1
5,CaSnS3,ABC3,3217.646931794782,3.1581530861077503,26.81372443162319,-4.87137634375,1.2199,3.34799235,0,0,0,0,0.0004619,1
1,CaSnS3,ABC3,458.0671251767284,3.6973553398359327,22.903356258836418,-4.96161246,0.9076,4.01782081,1,0,0,0,0.0012443,1
5,CaSnS3,ABC3,1521.189169567561,3.3400913544965607,25.353152826126017,-4.897321815666667,0.5271999999999997,3.93838923,0,0,0,0,0.0020062,1
5,CaSnS3,ABC3,504.4057838618343,3.357687372869992,25.220289193091716,-4.77116527,0.2498999999999998,3.8055566,0,0,0,0,0.0001641,1
5,CaSnS3,ABC3,503.2224859742892,3.3655827759692025,25.16112429871446,-4.910440428999999,0.5291000000000001,3.47006141,0,0,0,0,0.0007712,1
0,CaSnS3,ABC3,526.6296381842685,3.215992432774672,26.331481909213423,-4.7552729945,0.0,3.87246201,0,1,0,0,0.0003204,1
4,CaSnS3,ABC3,1019.8534772836334,3.321333836673188,25.496336932090838,-4.696124967,0.0,3.95172467,0,1,0,0,0.0152094,1
2,CaSnS3,ABC3,2042.7044615367172,3.316460042391753,25.533805769208968,-5.0061546775000005,0.8106999999999998,3.24604871,0,0,0,0,0.001802,1
0,CaSnS3,ABC3,992.4378425645772,3.4130841421744105,24.810946064114425,-4.8382225747500005,0.3031999999999999,3.96796315,0,0,0,0,0.0002675,1
1,CaSnS3,ABC3,440.30320339824056,3.846524209235946,22.01516016991203,-4.9992920095,0.7503000000000002,4.98347072,0,0,0,0,0.0005426,1
5,CaSnS3,ABC3,550.3127730062115,3.077589716886972,27.51563865031057,-4.9897667310000005,1.0567000000000002,2.71975312,1,0,0,0,3.01e-05,1
1,CaSnS3,ABC3,221.28021666936272,3.8269054431696135,22.12802166693627,-4.984162966,0.4246999999999996,4.60852437,0,0,0,0,3.31e-05,1
2,CaSnS3,ABC3,134.3291361459511,3.1520282566160907,26.865827229190224,-4.847989588,0.0,3.43012073,0,1,0,0,0.0133886,1
1,CaSnS3,ABC3,239.90321752509695,3.5298337153362582,23.990321752509697,-4.912291366,0.1110000000000002,3.9292392,1,0,0,0,0.0007144,1
4,CaSnS3,ABC3,247.7474765594473,3.4180710027718098,24.774747655944733,-4.683644213,0.0,4.43920671,0,1,0,0,0.0003359,1
0,CaZrO3,ABC3,71.99498215571205,4.135496361472064,14.398996431142413,-8.55771869,3.2122,2.32373246,0,0,0,0,0.0,0
1,CaZrO3,ABC3,258.7265007863652,4.603084505750543,12.93632503931826,-8.7496117745,3.8263,1.9903747,1,0,0,0,0.0,0
1,CaZrO3,ABC3,542.7856698013446,4.3882512500105175,13.569641745033616,-8.724246397749999,3.4707,2.21179489,1,0,0,0,0.0004199,1
0,Cr3GaN,ABC3,56.14677696976979,7.089651899013552,11.229355393953956,-8.385373256,0.0,6.8482817,0,1,1,1,0.3719384,0
0,Cs2AgAsCl6,ABC2D6,295.7592496658653,3.712971088389649,29.57592496658653,-3.603151581,1.5886000000000002,0.97213706,0,0,0,0,0.0006703,1
0,Cs2AgAsF6,ABC2D6,194.36865040047036,4.806353989385961,19.43686504004703,-4.514695167,2.4428,0.74669271,0,0,0,0,0.000277,1
0,Cs2HgSbCl6,ABC2D6,348.8082628513751,3.81266973581512,34.88082628513751,-3.339817185,0.0,1.30415755,0,1,0,0,0.0436684,1
0,Cs2LiTmCl6,ABC2D6,295.62722140338263,3.675790041086583,29.562722140338263,-4.419011159999999,5.2527,-0.53916667,1,0,0,0,6.52e-05,1
2,CsAuBr3,ABC3,349.55602409760155,5.411530359731257,34.955602409760154,-3.037363019,0.653,0.06261637,0,0,0,0,0.0,0
0,CsAuBr3,ABC3,163.8954261451431,5.770853651388424,32.77908522902862,-2.98430326,0.0,1.24190615,0,1,0,0,0.0003333,1
1,CsEuBr3,ABC3,808.6999868930995,4.308584189992555,40.434999344654976,-5.513263593,0.9373999999999998,2.20307245,1,0,1,1,28.0000006,0
0,EuHfO3,ABC3,68.80440725408809,9.133639660900895,13.760881450817616,-10.737502918,0.4795999999999996,5.45004823,1,0,1,1,6.9999999,1
0,HoGeO3,ABC3,59.54392016968279,7.963830434741589,11.908784033936556,-7.165676248,0.0,7.55387235,0,1,0,0,0.0006553,1
5,In14Sn5S26,A5B14C26,1037.6240057007424,4.856503505521086,23.058311237794275,-4.394095940444444,0.6484999999999994,6.07610799,0,0,0,0,8.35e-05,1
0,K2GaAgCl6,ABC2D6,267.2623967897912,2.910892789907072,26.72623967897912,-3.578767464,1.1817,0.08526729,1,0,0,0,0.0010648,1
0,K2NaPrF6,ABC2D6,190.31339334789683,3.1069390897963234,19.031339334789685,-5.453373556,5.9483,-2.82318444,0,0,0,0,0.0012636,1
0,K2NaTaI6,ABC2D6,422.64534701348055,4.100066252159729,42.264534701348055,-3.541329689,0.0,2.71521346,0,1,1,1,1.9978411,1
0,K2PrCuI6,ABC2D6,429.9990493288997,4.031940921688314,42.999904932889976,-3.339168471,1.8073,1.8075,0,0,0,0,0.0022687,1
0,KLaHfFeO6,ABCDE6,129.2144469589981,6.532631826993792,12.921444695899812,-8.231142547000001,0.0,3.6733829,0,1,1,1,4.0000007,1
0,KLaNbFeO6,ABCDE6,129.61187553564656,5.416135376018353,12.961187553564656,-8.197790811,1.7117999999999998,3.81304823,0,0,1,1,5.0000007,1
0,KRb2BiF6,ABC2D6,223.22054960571316,3.9650254444634254,22.322054960571315,-4.744890259,4.7967,-0.98341695,0,0,0,0,0.0,0
0,KTbEuNbO6,ABCDE6,152.32358144697017,5.874655802676257,15.232358144697017,-8.62017654,0.0,1.27873233,0,1,1,1,6.0009088,1
2,KTbEuNbO6,ABCDE6,303.74072697096244,5.892187198968678,15.187036348548125,-8.6518196875,0.0,1.3429564,0,1,1,1,12.0006669,1
5,La2MgNbO6,ABC2D6,263.0337585264064,6.199628302920456,13.151687926320315,-8.568148244,0.2118000000000002,8.62671976,0,0,1,1,2.0024456,1
0,La2MgNbO6,ABC2D6,129.8810438914926,6.277711839713153,12.98810438914926,-8.438101855,0.0,9.03541811,0,1,1,1,0.9911603,1
6,La3Ti3CrO12,AB3C3D12,959.8936705005729,5.56554164409231,12.630179875007537,-9.21126065118421,0.3308,5.09525476,0,0,1,2,0.0014377,1
1,LaLuS3,ABC3,484.78207567773165,5.618467249845161,24.239103783886584,-6.815472282,2.2322,4.42531927,1,0,0,0,0.0,1
3,Mg3Te2Pb6WO18,AB2C3D6E18,395.68577746651056,8.57428029008283,13.189525915550352,-6.465248418,2.56,7.83157316,0,0,0,0,3.12e-05,1
0,MgHgO3,ABC3,62.73446640003655,7.223299178475568,12.546893280007309,-4.313778648,0.0,1.57708785,0,1,1,1,2.0172459,1
1,MgPb2WO6,ABC2D6,542.2236851995124,8.802020997887091,13.55559212998781,-7.307699229250001,2.8636,4.61297388,1,0,0,0,0.0012994,0
0,MgPb2WO6,ABC2D6,132.1307594260462,9.03019153793083,13.213075942604622,-7.297342632,2.7567999999999997,4.73900456,1,0,0,0,0.0,0
0,MgReO3,ABC3,60.35474831531324,7.112386319166634,12.070949663062647,-7.510970314,0.0,6.22272464,0,1,0,0,0.0019014,1
0,MgTlO3,ABC3,62.50620705278708,7.350449885126004,12.501241410557416,-4.965142634,0.0,3.63663922,0,1,1,1,1.4382643,1
0,Mn3CuN,ABC3,56.131162548276606,7.169985079492228,11.226232509655322,-8.159858752,0.0,6.10538446,0,1,1,1,7.2162405,0
0,Mn3CuN,ABC3,91.74514021857055,4.386712985634877,18.349028043714117,-6.324723448,0.0,2.39656453,0,1,1,3,11.7982931,0
0,Na2LiNF6,ABC2D6,109.25719828300436,2.7496663219395487,10.925719828300435,-4.252466041,2.4767,-1.18709134,0,0,0,0,0.0015787,1
0,NaEuHfSbO6,ABCDE6,133.54452582174545,7.102501507280247,13.354452582174543,-8.414956834,0.0,6.33424447,0,1,1,1,7.0004039,1
0,NaLaCeNiO6,ABCDE6,130.36825073563193,5.817136558955035,13.036825073563191,-7.245564252999999,1.4265999999999996,4.70515862,0,0,0,0,0.0,1
0,Nd3InC,ABC3,232.6909891185906,3.993117407636687,46.53819782371812,-3.572369758,0.0,1.17207518,0,1,0,0,0.0036514,0
0,Nd3InC,ABC3,135.0999557994711,6.877592474040473,27.01999115989422,-5.574446192,0.0,4.15417651,0,1,0,0,5.7e-06,0
0,Rb2LiMnF6,ABC2D6,145.08592442073245,3.969257251508601,14.508592442073242,-5.40030717,0.0,0.00696679,0,1,1,1,3.9999936,1
0,Rb2NaNdF6,ABC2D6,194.65117930232077,3.857288071562933,19.46511793023208,-5.467320794,6.2143,-2.7148698,1,0,0,0,0.0005453,1
0,Rb2NaTbCl6,ABC2D6,316.6931347610547,2.9654856709159723,31.66931347610547,-4.362714639,5.1216,-1.2420418,1,0,0,0,0.0003825,1
0,Rb2SbAuI6,ABC2D6,433.523723959789,4.792084094157422,43.3523723959789,-2.789978009,0.0,2.18374451,0,1,0,0,0.0004073,1
4,RbMgCl3,ABC3,767.7004620050823,2.804963512700363,25.59001540016941,-3.9042653253333337,4.792800000000001,-0.08785833,1,0,0,0,0.0,0
4,RbMgCl3,ABC3,517.507435445248,2.774030074569228,25.8753717722624,-3.908508912,4.7503,-0.16227722,1,0,0,0,2e-07,0
0,RbNaO3,ABC3,92.81920017629032,2.7989997391806822,18.56384003525806,-3.935398672,0.0,-1.41302698,0,1,1,1,4.0000746,1
0,SiMoO3,ABC3,48.44761250350568,5.8961021910090725,9.689522500701136,-7.897829032,0.0,8.80428943,0,1,1,1,3.9989593,1
0,Sm3SnC,ABC3,188.78434476300373,5.117494210327947,37.75686895260075,-4.052777902,0.0,1.95574332,0,1,0,0,0.0035376,0
1,SmNiO3,ABC3,216.98020304035128,7.868814167394936,10.849010152017565,-7.521469400999999,0.0,3.68795514,0,1,1,1,3.9999879,0
0,SmNiO3,ABC3,54.6134402222849,7.815735873710142,10.92268804445698,-7.399777066000001,0.0,4.46613621,0,1,1,1,1.0005139,1
5,Sr2Ca2Mn(FeO4)3,AB2C2D3E12,464.6190791869812,4.788145010289632,11.61547697967453,-7.32600616025,0.0,2.93968694,0,1,1,1,32.1609037,1
0,Sr2GaBiO6,ABC2D6,137.2216715948494,6.654900144886934,13.72216715948494,-6.326530505,0.0,3.15895319,0,1,0,0,0.0,1
6,Sr2GdMgRuO6,ABCD2E6,158.98534305722424,5.784863399959672,14.453213005202205,-7.897040503636364,0.0807000000000002,3.81530372,0,0,1,3,6.0,1
5,Sr2GdMgRuO6,ABCD2E6,155.84601404505128,5.901392459841185,14.167819458641024,-7.752159666363636,0.0,4.48607181,0,1,1,3,5.9999999,1
5,Sr2GdMgRuO6,ABCD2E6,153.52829473438442,5.990482039632723,13.957117703125856,-7.806648859090909,0.0,4.5016206,0,1,1,3,8.0,1
0,Sr2HoUO6,ABC2D6,163.2642622236675,6.857153959464052,16.32642622236675,-8.484649049,0.9093,5.32860645,0,0,1,1,1.0001175,1
5,Sr2ScNbO6,ABC2D6,270.5625068742748,5.02157056429574,13.52812534371374,-8.4507531375,2.942,5.08714107,0,0,0,0,0.0017396,1
5,Sr2ScTaO6,ABC2D6,268.5269720982841,6.148512411564186,13.426348604914203,-8.7482020585,3.4213,2.22760599,0,0,0,0,0.0002036,1
0,Sr2TiBiO6,ABC2D6,144.03825709662695,6.087992162737132,14.403825709662694,-7.260295555000001,0.0,4.34190056,0,1,0,0,1.43e-05,1
0,Sr3BiSb,ABC3,240.27839885840416,4.102310731353994,48.05567977168083,-3.138934002,0.0,2.14109052,0,1,0,0,0.0006003,1
0,Sr3BiSb,ABC3,234.1898245467225,4.208964484504038,46.83796490934449,-3.286778262,0.0,2.28280217,0,1,0,0,0.0001527,1
5,Sr3CaRu2O9,AB2C3D9,820.7303497112467,5.252933121037064,13.678839161854112,-7.158687406500001,0.0,3.4622401,0,1,1,1,23.9970449,0
2,Sr4Ca(FeO3)5,AB4C5D15,593.6634783088837,5.089466756757173,11.873269566177674,-7.226000559,0.0,2.79512767,0,1,1,1,42.5919438,1
5,Sr4Ca(FeO3)5,AB4C5D15,594.3958679590938,5.083195729351589,11.887917359181875,-7.2259368596,0.0,2.53415414,0,1,1,1,42.3396421,1
5,Sr4MgFe4O11,AB4C4D11,268.616847129078,4.785702314191859,13.4308423564539,-7.1298583665,1.8344,2.7485291,0,0,1,3,3e-07,1
6,Sr4MgFe4O11,AB4C4D11,276.1705289704689,4.654806114645241,13.808526448523446,-7.070550915,1.4703000000000004,2.73857285,0,0,1,1,15.9999995,1
1,Sr4MgFe4O11,AB4C4D11,261.95435100360794,4.907420938081092,13.097717550180397,-7.002432754499999,0.4034,3.43477195,0,0,1,1,19.9943507,1
6,Sr4MgFe4O11,AB4C4D11,267.62853926559654,4.803375120098046,13.381426963279829,-7.0828157875,1.2334999999999998,2.68725951,0,0,1,3,1.9999996,1
5,Sr4MgFe4O11,AB4C4D11,262.36719886075537,4.899698866773381,13.118359943037769,-6.997884064,1.3481000000000003,2.91528604,0,0,1,3,6.0015352,1
4,SrCrO3,ABC3,355.208570148742,5.262387804534491,11.840285671624734,-7.796441788,0.0,3.41821514,0,1,1,1,11.999597,1
1,SrCrO3,ABC3,860.7115343340237,5.067403038596599,12.295879061914624,-7.816883840285714,0.6759,3.67519234,0,0,1,1,27.9990937,1
0,SrCrO3,ABC3,59.00943857782975,5.279509212613665,11.80188771556595,-7.809627400000001,0.0,3.21626213,0,1,1,1,2.0150808,0
4,SrCrO3,ABC3,240.9677928762296,5.1714940139379015,12.04838964381148,-7.785740088500001,0.0,3.30624647,0,1,1,1,8.0002548,1
1,SrCrO3,ABC3,364.730946713303,5.124997657756186,12.157698223776768,-7.824536523000001,0.4514,3.78748088,0,0,1,1,11.9999417,1
1,SrCrO3,ABC3,364.7311738206685,5.124994466571006,12.157705794022284,-7.713121453999999,0.0,3.46241389,0,1,1,1,9.8501638,1
1,SrCrO3,ABC3,862.2334892881977,5.058458409032564,12.31762127554568,-7.683591969857144,0.0,3.44010378,0,1,1,3,1.4968986,1
1,SrCrO3,ABC3,248.0153496233369,5.024541828978767,12.400767481166843,-7.8119524545,0.6795,3.13609293,0,0,1,1,8.0000583,1
0,SrEuHfNbO6,ABCDE6,140.0673620908034,7.195885184556146,14.00673620908034,-9.586245667,0.0,5.72418545,0,1,1,3,6.3565443,1
0,SrGdFeCoO6,ABCDE6,112.58342238705282,6.720488988880182,11.258342238705282,-8.442426137000002,0.0,3.48424075,0,1,1,3,1.0,1
1,SrIrO3,ABC3,254.9461238569644,8.541148204505298,12.74730619284822,-7.081156114,0.0,4.59918307,0,1,1,1,2.5083674,0
5,SrIrO3,ABC3,384.2771400263827,8.499852324849448,12.809238000879423,-7.105362223666668,0.0,4.52037488,0,1,1,3,2.0247608,0
0,SrIrO3,ABC3,63.90634971621028,8.518451756735805,12.781269943242055,-6.967076222,0.0,5.21071492,0,1,0,0,0.0956451,1
1,SrIrO3,ABC3,384.24436696692544,8.500577296220712,12.808145565564182,-7.08952906,0.0,4.58517584,0,1,1,1,5.8699255,1
1,TbLuO3,ABC3,273.160901583886,9.28601675808452,13.6580450791943,-8.787407116999999,4.6811,1.91106459,1,0,0,0,0.000192,1
1,TbRhO3,ABC3,229.55338451111135,8.964942818652476,11.47766922555557,-7.9449810865,0.7745999999999995,4.6271051,1,0,0,0,0.0,0
5,TmNiO3,ABC3,211.52687155397024,8.65492732731107,10.576343577698513,-7.548522843000001,0.0,3.91801168,0,1,1,1,4.0001937,0
1,TmNiO3,ABC3,203.77587181393056,8.98413381710249,10.188793590696529,-7.54801587,0.0,3.65791857,0,1,1,1,4.000001,0