Shape,formula_pretty,formula_anonymous,volume,density,density_atomic,energy_per_atom,band_gap,efermi,is_gap_direct,is_metal,is_magnetic,ordering,total_magnetization,theoretical
0,Rb2LiNdI6,ABC2D6,451.1129322432319,3.988512347447781,45.111293224323184,-3.402315209,2.9632,0.61375,1,0,0,0,0.0013092,1
0,Rb3RhF6,AB3C6,189.1985572070366,4.154006358868541,18.91985572070366,-4.773773793,2.1829,-0.02206588,1,0,0,0,0.0,1
2,RbAgF3,ABC3,165.15016611284094,5.034021616981131,16.515016611284093,-4.041566687,0.0,-0.54359696,0,1,0,0,7.3e-06,0
0,RbAgF3,ABC3,82.1683324390747,5.058941088262324,16.43366648781494,-4.040123524,0.0,-0.68949576,0,1,0,0,9e-07,1
1,RbAgF3,ABC3,77.92751683188361,5.334248671452057,15.585503366376722,-3.92832923,0.0,0.70960277,0,1,0,0,0.0018183,1
0,Sr2GdBiO6,ABC2D6,162.50359879772645,6.513938970533732,16.250359879772645,-7.819476847,1.7138999999999998,2.51438001,0,0,1,1,6.9999999,1
5,Sr2GdBiO6,ABC2D6,314.10730343886627,6.739980340931544,15.705365171943312,-7.930737381,1.5339,2.11802068,0,0,1,1,13.9998137,1
0,Sr2GdBiO6,ABC2D6,632.9139865342889,6.6899360581796286,15.822849663357225,-7.89388476675,1.6993,2.25396279,0,0,1,1,27.9999978,1
0,Sr2SmFeO6,ABC2D6,139.8577218203099,5.668690197390779,13.98577218203099,-7.249252848999999,0.2329000000000003,2.46584044,0,0,1,1,3.0000005,1
0,Sr2TaAlO6,ABC2D6,121.53532198183136,6.546850316351787,12.153532198183138,-8.353873973999999,3.5770000000000004,7.08932972,1,0,0,0,4.24e-05,1
2,Sr2TaAlO6,ABC2D6,124.05932442235034,6.413653829484513,12.405932442235034,-8.30244337,1.0943,3.96078923,0,0,0,0,0.0004231,1
0,Sr2TbNbO6,ABC2D6,151.67407262167808,5.726588924165711,15.167407262167808,-8.173567813,2.8842,1.94845446,1,0,0,0,0.0,1
0,Sr2TbNbO6,ABC2D6,590.5410547583612,5.883249317619841,14.76352636895903,-8.22359583875,3.1053999999999995,1.81029805,1,0,0,0,0.0,1
0,Sr2YSbO6,ABC2D6,148.1414988380859,5.401710652880951,14.814149883808591,-7.414485517,3.5121999999999995,3.06107098,1,0,0,0,4e-06,0
5,Sr2YSbO6,ABC2D6,290.0634833088896,5.517533632837783,14.50317416544448,-7.466337703000001,3.7073,2.78827777,0,0,0,0,0.0003315,0
6,Sr4Zr3TiO12,AB3C4D12,277.10580712368915,5.177536201047497,13.855290356184458,-8.602949040999999,2.604,2.16922913,0,0,0,0,1.94e-05,1
6,SrCa7Ti2Mn6O24,AB2C6D7E24,1782.562279583383,4.38763414887326,11.141014247396145,-7.879839125875,0.3421000000000003,2.8307879,1,0,1,1,72.0000027,1
1,SrCa7Ti2Mn6O24,AB2C6D7E24,451.2215445914888,4.333365297015199,11.28053861478722,-7.831422001999999,0.0,3.38852259,0,1,1,1,18.2868792,1
6,SrCa7TiMn7O23,ABC7D7E23,1812.6705217227784,4.282039956111007,11.61968283155627,-7.798251432692309,0.0,3.30518949,0,1,1,1,92.0218288,1
5,SrCa7TiMn7O23,ABC7D7E23,447.9664165242621,4.331757535255509,11.486318372416978,-7.798780105384615,0.0,3.4996124,0,1,1,1,22.9998661,1
0,SrCaEuWO6,ABCDE6,146.4983355780141,6.341839634112708,14.64983355780141,-8.606919381,0.5645999999999995,4.81908416,0,0,1,1,7.0000013,1
1,SrCaYBiO6,ABCDE6,608.4188755239061,5.694136592733571,15.210471888097652,-7.14858843775,2.0519,2.27435326,0,0,0,0,0.0,1
0,SrCaYBiO6,ABCDE6,157.4181394463119,5.5019392857391125,15.74181394463119,-7.0436001930000005,2.0748999999999995,2.49243614,1,0,0,0,0.0,1
2,SrCaYBiO6,ABCDE6,301.68892789815624,5.741709195241,15.084446394907811,-7.146985773500001,1.8217000000000003,2.55701253,0,0,0,0,1e-07,1
6,SrCaYBiO6,ABCDE6,298.0452745260631,5.811902551280901,14.902263726303156,-7.216207776500001,1.8269,2.26004961,0,0,0,0,0.0,1
5,SrLaCuSbO6,ABCDE6,265.6306937167745,6.349176034170135,13.281534685838723,-6.9823004045,0.3682999999999996,5.5613323,0,0,1,1,2.0058901,1
0,SrOsO3,ABC3,63.63388435567394,8.503074601842126,12.726776871134788,-7.619098773999999,0.0,5.66234618,0,1,1,1,1.0549489,1
1,SrOsO3,ABC3,251.60559242284316,8.602092833802455,12.580279621142155,-7.6549400565,0.0,5.24327337,0,1,1,1,4.2483181,0
0,TlCoF3,ABC3,74.10504154645177,7.177515697688809,14.821008309290354,-5.042304014000001,0.0,2.44361407,0,1,1,1,3.000163,1
1,YAgO3,ABC3,262.8602745640324,6.185094103225859,13.14301372820162,-6.923842615,0.0072,2.61094592,0,0,0,0,0.0009031,1
0,YAgO3,ABC3,86.74504699043106,4.685614886915885,17.349009398086213,-6.369843766000001,0.0,-0.31160564,0,1,1,1,2.0007623,1
0,YAgO3,ABC3,66.64785960361091,6.098528684371441,13.329571920722184,-6.419932356000001,0.0,4.02735328,0,1,0,0,7.42e-05,1
4,YAgO3,ABC3,410.7811382141837,5.936794741524685,13.692704607139458,-6.992948920333334,0.0009999999999998,2.13662833,1,0,0,0,2.7e-06,1
0,YbZnO3,ABC3,56.25730419802639,8.45502238151807,11.251460839605278,-5.47792792,0.0,1.66209172,0,1,0,0,0.0021261,1
2,BaLaCoSbO6,ABCDE6,135.71401747522657,6.7653195064043015,13.571401747522655,-7.296814987,0.0,6.34049123,0,1,1,1,2.9985283,1
0,BaSrTbCrO6,ABCDE6,142.12434821882906,6.2141524140290985,14.212434821882905,-7.62222523,0.0,2.60460092,0,1,1,1,1.0000001,1
0,Ca3BiP,ABC3,197.13736800000004,3.0339580993485185,39.427473600000006,-3.1889068380000003,0.0,2.16653169,0,1,0,0,0.0030177,1
0,Ca3BiP,ABC3,158.9968941301616,3.7617496719037433,31.79937882603232,-4.028133156,0.0759000000000003,3.37914756,1,0,0,0,0.0,1
1,CaHo(NiO3)2,ABC2D6,215.0556316260207,6.461169687500461,10.752781581301036,-6.929807485500001,0.0,3.29425783,0,1,1,3,1.9995244,1
0,Cs2KAsCl6,ABC2D6,341.1706836129593,2.884041580469558,34.11706836129593,-3.7157692829999993,3.4599,-0.36738241,1,0,0,0,0.0,1
0,Cs2LiDyCl6,ABC2D6,299.5366540390167,3.5921458183237567,29.95366540390167,-4.430768312,5.0917,-0.55958333,1,0,0,0,5.11e-05,1
0,Cs2LuAgCl6,ABC2D6,312.3547306180463,4.047561039863931,31.23547306180463,-4.241164316,3.7052,-0.04659303,0,0,0,0,0.0001491,1
0,Cs2NaGaH6,ABC2D6,159.61827743685834,3.792704179322304,15.961827743685834,-2.865800009,1.0896,0.83296412,0,0,0,0,3.5e-06,1
0,CsNaO3,ABC3,88.02284214895064,3.846421940332156,17.604568429790127,-3.68425351,0.0,-0.1135841,0,1,0,0,8.1e-05,1
0,EuOsO3,ABC3,63.46142186546037,10.209815231625685,12.692284373092075,-9.311723178,0.0,6.03623653,0,1,1,3,5.7933101,1
5,InRhO3,ABC3,459.51381584522665,7.681880256535902,11.487845396130666,-6.498414126750001,1.0391000000000004,6.26136918,1,0,0,0,0.000383,0
1,InRhO3,ABC3,231.0110061819039,7.6401773402245725,11.550550309095197,-6.4651187425000005,0.3221999999999996,6.64157388,1,0,0,0,3.73e-05,0
1,InRhO3,ABC3,243.5088033329128,7.248054405493056,12.17544016664564,-6.2046191825,0.0,5.95213593,0,1,0,0,0.0011418,1
0,K3BiF6,AB3C6,220.69487145196092,3.3126208217098547,22.069487145196096,-4.734659556,4.5618,-1.19958333,0,0,0,0,7.67e-05,1
0,KCaHfBiO6,ABCDE6,144.32232307886463,6.473640585679799,14.432232307886462,-7.245857524,1.2895,2.45844062,0,0,0,0,0.0,1
1,KCaNdWO6,ABCDE6,601.7274308665466,5.555166987129772,15.043185771663664,-7.872253480749999,2.8502,1.66427184,1,0,0,0,0.0,1
0,KCaNdWO6,ABCDE6,155.0590518805308,5.389392490571458,15.50590518805308,-7.83013105,2.8268000000000004,1.57930072,1,0,0,0,0.0,1
0,KCeHfZrO6,ABCDE6,143.18879165062327,6.319410494874068,14.318879165062327,-8.973766444,0.1508999999999996,4.05588216,0,0,1,1,0.9999997,1
0,KHfMnSbO6,ABCDE6,131.97441647472118,6.168874797853928,13.197441647472118,-7.835178143,0.8812000000000002,3.03405648,1,0,1,1,4.9999996,1
6,La6Mn5O18,A5B6C18,724.0340477094619,6.403839519744271,12.483345650163136,-8.644513461724138,0.0,6.41945759,0,1,1,1,33.9984842,1
0,Li3GaF6,AB3C6,114.2524643831722,2.972721126478376,11.42524643831722,-4.945922112,5.7707,-2.29916667,1,0,0,0,0.0001848,1
5,Li3GaF6,AB3C6,594.5338744810464,3.4276336054412844,9.90889790801744,-5.139374468333333,6.2804,-2.54857023,1,0,0,0,0.0,0
5,LiVF3,ABC3,271.50698533318666,2.810372255258703,13.575349266659334,-6.3415311270000005,2.3764000000000003,0.90679469,0,0,1,1,12.0000001,1
6,LiVF3,ABC3,1175.1438629504703,2.921906629781428,13.057154032783004,-6.317487076555556,1.355,1.83631801,0,0,1,1,54.0004751,1
1,LiVF3,ABC3,1037.140391065542,2.9428444027925225,12.964254888319276,-6.358289442375001,2.5628,2.17041048,0,0,1,1,48.000083,1
1,LiVF3,ABC3,229.3844217614181,3.3264495157519893,11.469221088070906,-6.3760113795,2.426,2.39115691,1,0,1,1,12.0006725,1
3,LiVF3,ABC3,118.24506596419596,3.22650121790436,11.824506596419598,-6.366718601,2.5456000000000003,1.93182127,0,0,1,1,5.999992,1
0,LiVF3,ABC3,235.5484779962295,3.23939982622827,11.777423899811476,-6.3406433275,2.2726000000000006,1.86900786,0,0,1,1,12.0017505,1
5,LiVF3,ABC3,119.44021064285688,3.194216146231122,11.944021064285687,-6.332621882,2.2313,1.86843913,0,0,1,1,5.9979824,1
4,LiVF3,ABC3,175.08356519984343,2.179061460789815,17.508356519984343,-6.320171929,1.9761,0.08015182,0,0,1,1,5.9899161,1
1,LiVF3,ABC3,239.84395044135243,3.181383967722379,11.992197522067622,-6.3842221985,2.5428,1.82186053,1,0,1,1,12.0039448,1
5,LiVF3,ABC3,252.65339511939445,3.0200888388170584,12.632669755969722,-6.311386476,2.3717,1.35192438,0,0,1,1,12.0000719,1
3,LiVF3,ABC3,107.34272053522622,3.5542032793873397,10.734272053522622,-6.393293879,2.5687999999999995,2.03102695,1,0,1,1,6.0000001,1
0,LiVF3,ABC3,234.47751686904132,3.254195578655349,11.723875843452069,-6.3746445750000005,2.6788,1.96511255,0,0,1,1,12.0,1
1,LiVF3,ABC3,471.7682711459684,3.234790236468577,11.794206778649208,-6.3906481605,2.6218000000000004,2.0073357,1,0,1,1,23.9988894,1
0,Mn3SnC,ABC3,59.02121637937581,8.314758135519723,11.804243275875162,-8.161097688,0.0,8.8738259,0,1,1,1,3.0241172,0
0,NpMoO3,ABC3,65.25116984680244,9.694274670407031,13.050233969360487,-9.820242098,0.0,9.85907008,0,1,1,3,1.2665071,1
0,Pr3GaC,ABC3,169.79153793566402,4.933520156043145,33.95830758713281,-4.103016892,0.0,1.99449761,0,1,0,0,0.0005476,0
0,Rb2NaBiI6,ABC2D6,481.6693675664969,4.013997736212805,48.16693675664969,-2.867515838,2.1072,0.4275,0,0,0,0,0.0050952,1
1,Sr2Ca6Co7CuO24,AB2C6D7E24,442.8946881561715,4.783234580606536,11.072367203904289,-6.613991336,0.0,3.21136838,0,1,1,1,22.2148348,1
1,Sr2Ca6Fe3Co5O24,A2B3C5D6E24,450.47089591436907,4.651632899534596,11.261772397859229,-6.9134030535,0.0,3.16764617,0,1,1,1,27.440389,1
2,Sr2CoReO6,ABC2D6,254.6363323581864,6.7348088242900666,12.73181661790932,-7.733550091000001,0.0,4.62025647,0,1,1,2,0.0001067,0
5,Sr2CoReO6,ABC2D6,510.603973293055,6.717249014302168,12.765099332326376,-7.736410139,0.0,4.65916888,0,1,1,3,0.2177175,0
6,Sr3La7Mn7(FeO10)3,A3B3C7D7E30,609.7191499557817,6.174826033197563,12.194382999115636,-8.3630808832,0.0,5.98804279,0,1,1,1,40.0035578,1
0,SrCaHfSnO6,ABCDE6,138.1585753154528,6.260671831612481,13.81585753154528,-7.886126335999999,3.6634,3.41991904,1,0,0,0,0.0,1
0,SrCaLaNbO6,ABCDE6,147.2376554245709,5.137177178109569,14.723765542457093,-8.101143793999999,2.4044,3.44401681,0,0,0,0,0.0,1
2,SrCaTiMnO6,ABCDE6,232.69043124590235,4.659968875752947,11.634521562295117,-8.0336380945,0.0,3.27303175,0,1,1,2,0.0003215,1
1,SrCaTiMnO6,ABCDE6,462.64889234716543,4.687486278375305,11.566222308679135,-8.049276725,0.7115999999999998,3.12325311,1,0,1,2,1.19e-05,1
5,SrCaTiMnO6,ABCDE6,229.74066565799623,4.719800755281285,11.487033282899812,-8.0649125715,1.536,3.26134669,0,0,1,2,4e-07,1
0,SrEuInWO6,ABCDE6,140.2452834484687,7.509540533852275,14.024528344846871,-8.234480338000001,0.0,5.98519369,0,1,1,1,7.9999997,1
4,SrMnO3,ABC3,340.51092050106075,5.575611297425895,11.350364016702024,-7.623904114666667,0.0,3.52711467,0,1,1,3,5.9999986,0
1,SrMnO3,ABC3,246.8202828149864,5.1280402987673455,12.34101414074932,-7.6389496565,0.0,3.1042004,0,1,1,2,0.0,0
0,SrMnO3,ABC3,231.64938296111515,5.463879681651756,11.582469148055758,-7.589702307,0.0,2.91897183,0,1,1,2,1.22e-05,0
4,SrMnO3,ABC3,234.10501793574895,5.406566540046488,11.70525089678745,-7.6358860055,0.9027000000000004,2.83034718,0,0,1,1,11.9999998,0
4,SrMnO3,ABC3,245.70082607116169,5.151404564109284,12.285041303558083,-7.626330752999999,0.9515000000000002,3.69440035,1,0,1,1,11.9985,1
0,Cr3PtN,ABC3,59.93174878989092,10.115305395485436,11.986349757978184,-9.06558658,0.0,7.69890551,0,1,1,1,6.8029994,0
0,Cs2LiTaBr6,ABC2D6,328.2989246230527,4.71974892623425,32.82989246230527,-4.143199034,0.0,2.52484871,0,1,1,1,1.998841,1
0,Fe3NiN,ABC3,53.75524893195147,7.421038440795771,10.751049786390292,-8.032090491999998,0.0,6.13814878,0,1,1,1,8.0131899,0
0,Fe3NiN,ABC3,78.99992117975385,5.049622363683991,15.79998423595077,-6.121132214,0.0,2.66115016,0,1,1,1,10.9903852,0
0,Rb2NbAgF6,ABC2D6,189.18535694251992,4.263146115942126,18.918535694251997,-5.259301424999999,0.0,2.54168917,0,1,1,1,2.0007032,1
4,RbMgH3,ABC3,428.6656151988668,2.6216685563204,14.288853839962227,-2.8848991706666665,2.5619,-0.01193065,0,0,0,0,0.0,0
1,BaCaZr2O6,ABC2D6,146.7643659341326,5.157626187857408,14.67643659341326,-8.648629853,3.1207000000000003,2.07707446,0,0,0,0,0.0,1
2,BaCaZr2O6,ABC2D6,149.04594073158185,5.078673954290229,14.904594073158185,-8.629198287,3.1767,2.1688459,0,0,0,0,0.0,1
0,BaSrYSbO6,ABCDE6,151.65346164673403,5.820888743359171,15.165346164673403,-7.449895085,3.5348,3.0136058,1,0,0,0,0.0,1
1,BaSrYSbO6,ABCDE6,603.3565678747468,5.852313373502092,15.08391419686867,-7.46309864725,3.4776,2.96829413,1,0,0,0,0.0,1
0,BeInO3,ABC3,44.98670568815324,6.342490224546631,8.997341137630647,-5.796295332,0.0,6.46332566,0,1,1,1,0.7138448,1
5,Ca4Mn3CrO12,AB3C4D12,876.2990020933997,4.313768459164353,10.953737526167496,-7.756144506625,0.3445999999999998,2.90514851,0,0,1,1,44.0010721,1
2,Ca4Mn3CrO12,AB3C4D12,220.71186604917756,4.2817713697203725,11.035593302458876,-7.673319641000001,0.0,3.4578542,0,1,1,1,11.3313175,1
0,CaEuHfFeO6,ABCDE6,127.69206135383436,6.793072559530901,12.769206135383437,-9.027098534,0.0,3.03267376,0,1,1,1,11.0000007,1
1,CaHo(FeO3)2,ABC2D6,226.61224293553173,6.048179006237593,11.330612146776588,-7.873854176,0.0,3.14895067,0,1,1,1,18.0000353,1
1,CaTmMn2O6,ABC2D6,222.48884928493555,6.192959824268081,11.124442464246776,-8.244662947,0.0,3.79298449,0,1,1,1,14.070671,1
1,CaTmMn2O6,ABC2D6,222.69461358785733,6.187237682898189,11.134730679392868,-8.247238004,0.0,3.81976301,0,1,1,1,14.0007902,1
1,CeRhO3,ABC3,251.99033953667276,7.670922335971273,12.599516976833636,-8.1817845965,0.0,7.22353613,0,1,1,1,3.9984864,1
3,Cs2LiInCl6,ABC2D6,594.8765229435826,3.351288803716525,29.743826147179128,-3.769727556,3.6618,-0.20934819,1,0,0,0,0.0002006,0
0,Cs2LiInCl6,ABC2D6,288.8730780057476,3.450655638624412,28.88730780057476,-3.756440229,2.7765,-0.03916667,1,0,0,0,9.35e-05,1
5,Cu2Bi8Pb3Se3S13,A2B3C3D8E13,763.5466091644774,6.685812105929822,26.32919341946474,-4.592058696896552,0.3505000000000002,4.57331933,0,0,0,0,0.0043014,1
0,Eu2VWO6,ABC2D6,129.93122752175051,8.111629227662617,12.99312275217505,-9.964508145,0.3942000000000005,5.63846517,0,0,1,1,16.9999997,1
0,Eu2YWO6,ABC2D6,147.72797753083103,7.561162399529028,14.772797753083102,-9.939453238,0.0,5.02725159,0,1,1,1,15.0000004,1
0,Fe3PtN,ABC3,103.22388246464736,6.058691781427252,20.644776492929477,-5.978059606,0.0,1.55927759,0,1,1,1,11.6663812,1
0,Fe3PtN,ABC3,57.02610009663068,10.966937722829178,11.405220019326135,-8.215224813999999,0.0,6.39377339,0,1,1,1,8.7936485,0
0,HgOsO3,ABC3,61.84708243829101,11.781877746005884,12.3694164876582,-6.127337816,0.0,4.19491491,0,1,0,0,0.0022294,1
0,K2AsAuBr6,ABC2D6,326.26781049384755,4.2217824520502285,32.62678104938475,-3.168749064,0.1518,0.85054345,0,0,0,0,0.0004757,1
0,K3AsCl6,AB3C6,328.16187681628145,2.049017890766697,32.81618768162814,-3.672402941,3.4739,-0.73857574,1,0,0,0,0.0010726,1
0,KCaHfSbO6,ABCDE6,133.3994090966826,5.918001975003381,13.33994090966826,-7.562842878,3.3114,3.18791747,1,0,0,0,0.0,1
0,KLaCeHfO6,ABCDE6,156.39211999014512,6.292169301466144,15.639211999014512,-8.595875916,2.0577,3.38782116,0,0,0,0,0.0,1
1,KLaCeHfO6,ABCDE6,613.9396232158213,6.411351599942422,15.34849058039553,-8.703858857250001,2.2193,3.39273529,0,0,0,0,0.0,1
0,KPdF3,ABC3,80.02153630160868,4.20238862870112,16.004307260321735,-4.51968138,0.0,0.79085937,0,1,0,0,0.0026034,0
0,KZnO3,ABC3,68.34503711356686,3.7053362075224703,13.669007422713372,-4.385129023999999,0.0,-0.64889987,0,1,1,1,2.9948736,1
5,La3SmCr4O12,AB3C4D12,243.5251112314637,6.594105596671974,12.176255561573187,-9.0572345745,2.6897,5.53725365,1,0,1,1,12.0117938,1
0,LaPd3C,ABC3,84.3093637881564,9.260488555353568,16.861872757631282,-6.130292684,0.0,6.99086234,0,1,0,0,0.0028151,1
1,LaScO3,ABC3,267.3212593398151,5.761036661691382,13.366062966990754,-9.173035223,3.8973,4.95757224,1,0,0,0,0.0,0
0,LaScO3,ABC3,67.8627929880572,5.673387093636159,13.572558597611438,-8.9689534,2.8177000000000003,5.80913349,1,0,0,0,0.0012112,1
0,LaTiO3,ABC3,62.049187819988944,6.282852087570259,12.409837563997788,-9.13262696,0.0,9.32725554,0,1,0,0,0.002878,0
1,LaTiO3,ABC3,250.78714658782192,6.217956135807595,12.539357329391096,-9.174762257,0.0,9.60807611,0,1,0,0,0.0392361,0
1,MgVO3,ABC3,144.72309292040592,2.828196039369485,14.472309292040592,-7.61839454,0.0,1.90670307,0,1,1,1,1.9998495,0
0,MgVO3,ABC3,53.97676689030422,3.791494950360921,10.795353378060843,-7.369989646,0.0,5.5090425,0,1,1,1,1.00169,1
1,MgVO3,ABC3,139.19166731988958,2.9405875084614848,13.919166731988955,-7.880577794,2.478,1.05424075,0,0,1,1,2.0000001,1
1,MgVO3,ABC3,199.1778067480193,4.109948642226068,9.958890337400964,-7.7877612565,0.6976000000000004,4.92093497,0,0,1,1,3.9999653,1
1,MgVO3,ABC3,145.497817784871,2.8131368870973814,14.549781778487098,-7.695857052000001,0.0,2.80978996,0,1,0,0,0.0332291,0
6,Na2La7Ti8Mn2O30,A2B2C7D8E30,611.7816931010409,5.404410043691339,12.485340675531448,-8.910953265918367,0.2924999999999995,6.03075938,0,0,1,1,9.0018896,1
0,NaEuZrWO6,ABCDE6,136.1709580700619,6.658379083593486,13.617095807006187,-9.11728923,0.0,4.66334644,0,1,1,1,8.0000001,1
0,NaSrSnSbO6,ABCDE6,131.89241980150902,5.628734736632839,13.189241980150902,-6.338208597,0.0043000000000006,4.13116066,1,0,0,0,0.0,1
0,NaSrTiBiO6,ABCDE6,134.1149134570335,5.738234007742929,13.41149134570335,-6.901429596,0.6261000000000001,2.99183903,0,0,0,0,0.0,1
0,NaSrZrBiO6,ABCDE6,147.2811911140749,5.7140952167027965,14.728119111407487,-7.053613215,1.2369000000000003,2.36649103,0,0,0,0,0.0,1
0,Pr3AlN,ABC3,128.20754605647855,6.005968977447023,25.64150921129571,-6.070504188,0.0,4.15107682,0,1,0,0,0.0035175,0
0,Pr3AlN,ABC3,174.4296982214099,4.414446347963168,34.885939644281976,-4.209235396,0.0,2.13997582,0,1,0,0,0.0062381,1
0,Rb2TlRhF6,ABC2D6,198.58184760510488,4.952093330587864,19.85818476051049,-4.720728048,1.9393,0.62759852,0,0,0,0,0.0007917,1
0,Rb2YHgCl6,ABC2D6,347.6954273843467,3.2148566571445985,34.76954273843467,-4.061328163,0.0,0.65445926,0,1,1,1,0.8870538,1
0,SbAuO3,ABC3,64.11512496108023,9.497927454465971,12.823024992216045,-5.34703573,0.0,5.05279234,0,1,0,0,0.0855945,1
0,SiPdO3,ABC3,46.58900297437676,6.504851022798701,9.317800594875353,-6.653262065999999,0.0,6.21688942,0,1,1,1,1.9946826,1
0,Sr2CeVO6,ABC2D6,143.75255705681462,5.340128182189318,14.375255705681464,-7.953304777,0.0,4.79953534,0,1,1,1,0.9999998,1
0,Sr2DySbO6,ABC2D6,147.79050987468432,6.241425612089765,14.779050987468432,-7.241819586,3.4626,3.02790175,1,0,0,0,0.0,1
0,Sr2EuBiO6,ABC2D6,644.8536076249271,6.51162312277874,16.12134019062318,-7.310651437750001,0.0,2.58813934,0,1,1,1,23.9999992,1
5,Sr2EuBiO6,ABC2D6,315.02172004471737,6.664689123057467,15.75108600223587,-7.350251521500001,0.0,2.56731916,0,1,1,1,11.9999997,1
0,Sr2EuBiO6,ABC2D6,163.8915200794167,6.405218006677587,16.389152007941668,-7.233801611,0.0,2.90663326,0,1,1,1,5.9999999,1
0,Sr2PrNiO6,ABC2D6,142.58960485138837,5.483176565067193,14.258960485138838,-6.687436465999999,0.0,2.27891366,0,1,1,1,0.9999999,1
0,Sr2VSnO6,ABC2D6,129.19476249956895,5.666728029657369,12.919476249956896,-7.306071167000001,0.0,5.28614177,0,1,1,1,0.9999998,1
6,SrCa7Mn7CrO22,ABC7D7E22,1841.9903515144697,4.1710767960513495,12.11835757575309,-7.740990469671052,0.0,3.08255178,0,1,1,1,107.9999994,1
5,SrCa7Mn7CrO22,ABC7D7E22,456.6848522190709,4.2058999638479975,12.018022426817655,-7.710856300789474,0.0,3.51733755,0,1,1,1,26.9994674,1
1,SrCaEuSbO6,ABCDE6,593.1976744066787,5.569696047590343,14.829941860166969,-7.585476756,0.0,3.13601572,0,1,1,1,24.000001,1
2,SrCaEuSbO6,ABCDE6,286.3075742553694,5.769897550170557,14.315378712768467,-7.602761787,0.0,3.06724478,0,1,1,1,12.0027799,1
2,SrCaEuSbO6,ABCDE6,292.1709891733278,5.654104728075234,14.608549458666392,-7.589978224499999,0.0,3.41647982,0,1,1,1,12.0000023,1