Shape,formula_pretty,formula_anonymous,volume,density,density_atomic,energy_per_atom,band_gap,efermi,is_gap_direct,is_metal,is_magnetic,ordering,total_magnetization,theoretical
5,ZrCrCuS4,ABCD4,253.84567544847476,4.383166476228271,18.131833960605334,-6.735439122142857,0.0,5.21903944,0,1,1,1,6.0012661,1
1,ZrCrCuS4,ABCD4,619.9729102551762,3.5893434579369567,22.14188965197058,-6.45859168,0.0463999999999997,3.22317094,0,0,1,1,12.0024282,1
1,ZrCrCuS4,ABCD4,515.4450866693028,4.317231392973292,18.40875309533224,-6.600369008214286,0.4152999999999993,4.94188511,0,0,1,1,12.0078758,1
1,ZrCrCuS4,ABCD4,1033.8520025635924,4.304863179651624,18.46164290292129,-6.581549983214286,0.0906000000000002,5.33712753,0,0,1,1,24.0074718,1
1,ZrCrCuS4,ABCD4,266.4138250720682,4.1763893238659495,19.02955893371916,-6.8066020485714285,0.0,4.77975149,1,1,1,1,5.9994855,1
1,ZrCrCuS4,ABCD4,538.0238790589044,4.136053800093362,19.215138537818014,-6.655978248214287,0.4735000000000005,4.44489202,0,0,1,1,12.0040909,1
1,ZrCrCuS4,ABCD4,267.7942382355407,4.154861068305127,19.1281598739672,-6.684888162142857,0.0,4.59132443,0,1,1,1,1.6724588,1
1,ZrCrCuS4,ABCD4,519.396613663629,4.284386249317552,18.54987905941532,-6.666217616071428,0.9079999999999996,4.67637721,0,0,1,1,12.0043924,1
1,ZrCrCuS4,ABCD4,265.5366571215133,4.1901855164656725,18.96690408010809,-6.805622757142857,0.1884999999999994,4.77158848,1,0,1,1,6.0015778,1
6,ZrCrCuS4,ABCD4,594.1089576553471,3.7456020160084593,21.21817705911954,-6.565310260357143,0.0,3.85911022,0,1,1,3,12.0041427,1
1,ZrCrCuS4,ABCD4,508.668156218373,4.374749396671934,18.166719864941893,-6.573439130357143,0.4518999999999993,4.97752731,0,0,1,1,12.010854,1
1,ZrCrCuS4,ABCD4,604.802404435761,3.679376426419138,21.60008587270575,-6.543547555357143,0.2298999999999997,3.94852567,0,0,1,1,12.0050925,1
5,ZrCrCuS4,ABCD4,126.81068735547856,4.3870429139867255,18.11581247935408,-6.730606662857142,0.1493999999999999,5.22871291,0,0,1,1,3.0011,1
6,ZrCrCuS4,ABCD4,603.3534119910776,3.6882126881143096,21.548336142538485,-6.556854952142857,0.0,3.68772395,0,1,1,3,12.0145181,1
1,ZrCrCuS4,ABCD4,563.8583801419192,3.946550743756724,20.137799290782823,-6.471519857142858,0.1696999999999997,4.16422225,0,0,1,1,12.0000635,1
1,ZrCrCuS4,ABCD4,517.7827266001502,4.297740336249192,18.49224023571965,-6.616729093214286,0.2794999999999996,4.99280022,0,0,1,1,12.009278,1
6,Ca6Pr6Mn11CrO36,AB6C6D11E36,693.962507169068,5.547090907421528,11.566041786151134,-8.241825043666667,0.0,4.03142683,0,1,1,1,41.0000993,1
6,Ca8TiMn7O23,AB7C8D23,1794.402655594728,4.14965179908097,11.50258112560723,-7.815073073461538,0.0,3.34350884,0,1,1,1,91.9999995,1
2,Ca8TiMn7O23,AB7C8D23,447.9522617844922,4.155658338681767,11.485955430371597,-7.766161551538461,0.0,3.54613302,0,1,1,1,22.9999709,1
0,Cs3InCl6,AB3C6,393.36027938733946,3.0658164335464524,39.33602793873395,-3.666921689,3.7287,-1.0689378,1,0,0,0,0.0002163,1
0,Eu2FeWO6,ABC2D6,128.46506867808608,8.26758905742726,12.846506867808609,-9.690340722,0.0,5.45857125,0,1,1,3,17.5696206,1
0,K2TlAuBr6,ABC2D6,352.3881924239772,4.51890262422389,35.238819242397724,-2.985899353,0.0,0.43226693,0,1,0,0,0.0001363,1
3,KBa2(BiO3)3,AB2C3D9,251.37352739849624,7.16530091201999,16.758235159899748,-6.093714264,0.0,3.46143017,0,1,0,0,4.99e-05,1
0,KCaGdFeO6,ABCDE6,137.18917408216447,4.699595929944071,13.718917408216448,-7.726534777,0.0,1.43711733,0,1,1,3,9.0000008,1
0,KLaGdSbO6,ABCDE6,149.8124517588967,6.129630619689619,14.981245175889672,-8.237865332,2.2343,3.81295485,0,0,1,1,7.0,1
3,KNbO3,ABC3,66.42558683114699,4.4997993785183485,13.285117366229397,-8.067439236,2.2934,1.18912488,0,0,0,0,0.0,0
2,KNbO3,ABC3,66.19193300770227,4.515683418789579,13.238386601540457,-8.065304770000001,1.4759999999999998,1.31004182,0,0,0,0,1e-07,0
0,KNbO3,ABC3,65.41101790884895,4.569594296132727,13.08220358176979,-8.054525484,1.4120999999999997,1.42564579,0,0,0,0,0.0,0
1,KNbO3,ABC3,66.39970574294573,4.501553297504891,13.279941148589144,-8.067304666,2.0585,1.2544468,0,0,0,0,0.0,0
0,KPrNb2O6,ABC2D6,134.79963019965317,5.688903082043836,13.479963019965316,-8.553767893,0.0,5.44823925,0,1,0,0,0.0002538,1
0,KVBiWO6,ABCDE6,129.55169777348345,7.419539958016592,12.955169777348342,-7.660886238000001,0.0,5.27442349,0,1,1,1,2.7230868,1
6,La8Mn7O24,A7B8C24,971.7169083398196,6.424657487737375,12.457909081279738,-8.685834064871795,0.0,6.68646123,0,1,1,1,50.0005924,1
6,La8Mn7O24,A7B8C24,482.9909571721138,6.462800409016519,12.384383517233688,-8.68438998205128,0.0,6.7301886,0,1,1,1,25.0031844,1
6,MgCd4(TcO3)4,AB4C4D12,252.96347677765127,6.944693010498377,12.045879846554826,-6.515668505714286,0.0,5.03130834,0,1,1,3,4.1997868,1
6,MgCd4(TcO3)4,AB4C4D12,252.5502930557523,6.956054842911261,12.0262044312263,-6.535814589523809,0.0,4.98263727,0,1,1,3,0.0578449,1
5,MgCd4(TcO3)4,AB4C4D12,251.91934399388364,6.9734767534635065,11.996159237803983,-6.526785274761905,0.0,4.99554432,0,1,1,3,1.9012728,1
1,MgSnO3,ABC3,228.0837393763739,5.562604010325774,11.404186968818696,-6.520117402,2.0089999999999995,5.14942465,0,0,0,0,0.0030238,1
0,MgSnO3,ABC3,65.21888912494153,4.863389810713269,13.043777824988306,-5.963253124,0.8948999999999998,4.60866351,0,0,0,0,0.0004715,1
3,MgSnO3,ABC3,113.11787770386655,5.608041580600432,11.311787770386657,-6.589533251000001,2.5629,6.87486257,0,0,0,0,0.0,1
0,Na2TbWO6,ABC2D6,146.61489215278775,5.490109735981541,14.661489215278774,-7.462561479,0.0,0.76739654,0,1,1,1,1.0,1
0,NaLa(SeO3)2,ABC2D6,128.05572552485222,5.391960949355793,12.805572552485222,-6.05654987,0.0,6.2951668,0,1,0,0,6.3e-06,1
5,NaPr3Mn4O12,AB3C4D12,234.97853139063824,6.059455726380124,11.748926569531912,-8.2528267015,0.0,3.81336751,0,1,1,1,14.0003209,1
1,Nd3Ti4O12,A3B4C12,936.6980678669177,5.787606971922559,12.324974577196285,-9.212806853421052,0.0,5.57592098,0,1,1,1,4.000006,0
1,Nd3Ti4O12,A3B4C12,236.39070157308123,5.733347623338055,12.441615872267434,-9.17400392368421,0.0,5.65736654,0,1,0,0,0.0381024,1
0,NdTaO3,ABC3,66.58145441296672,9.307297227030247,13.316290882593345,-9.27075171,0.0,6.70488174,0,1,0,0,0.0020946,1
0,Rb2CuAsF6,ABC2D6,164.2605512154718,4.280161244001365,16.42605512154718,-4.616064056,1.0685000000000002,2.54460438,0,0,0,0,0.0006407,1
0,Rb2NdAgF6,ABC2D6,212.3126702350442,4.200265679733163,21.231267023504422,-5.236339641,2.8480000000000003,-0.46482107,0,0,0,0,0.0,1
4,Rb3IO,ABC3,1065.8643342043097,3.732550007355597,35.52881114014365,-3.2850315656666664,1.6746,1.70135652,1,0,0,0,0.0,0
2,RbAgBr3,ABC3,161.60527476866693,4.449688432152706,32.32105495373339,-2.955828678,0.0,0.26277773,0,1,0,0,0.0072009,1
5,RbCr5Se8,AB5C8,308.8300728600329,5.2538915663366,22.059290918573776,-6.431384965,0.0152000000000001,3.72078738,0,0,1,1,14.9999993,0
0,RbCuO3,ABC3,66.23687800780135,4.939032944011462,13.24737560156027,-4.643878798,0.0,0.88038256,0,1,1,1,2.175724,1
0,RbGeI3,ABC3,206.9055618468492,4.3243577462647504,41.38111236936984,-3.0570703480000003,0.5540000000000003,2.08044408,1,0,0,0,0.0,0
1,RbGeI3,ABC3,816.7220152541115,4.382072002010617,40.83610076270558,-3.0653950510000003,2.1987,1.36837459,0,0,0,0,0.0,0
3,RbInBr3,ABC3,374.0773742733569,3.9063230570269303,37.40773742733569,-3.219485888,0.0,1.28168402,0,1,0,0,0.0003359,1
5,RbInBr3,ABC3,188.6232563714504,3.873507170713019,37.72465127429008,-3.213021126,0.0,1.7062804,0,1,0,0,0.0007017,1
0,RbInBr3,ABC3,375.4711261547887,3.891822753991732,37.54711261547887,-3.229154639,1.3264,0.60909934,0,0,0,0,0.0,1
0,Sm3AlC,ABC3,126.23569060076314,6.4465452977566775,25.247138120152627,-5.682542037999999,0.0,3.31135497,0,1,0,0,3.7e-06,0
5,Sr2SmSbO6,ABC2D6,297.1190423841797,6.073421091068902,14.855952119208988,-7.25041523,3.6616,2.63488419,0,0,0,0,2.4e-06,0
0,Sr2SmSbO6,ABC2D6,153.67464656797688,5.871264710461046,15.367464656797688,-7.180764773999999,3.4098,2.87242518,1,0,0,0,0.0,1
0,Sr2SmSbO6,ABC2D6,603.2813174681592,5.982380048324684,15.082032936703978,-7.22533370225,3.5285,2.70776936,1,0,0,0,0.0,1
0,SrCaHfZrO6,ABCDE6,143.10487775398917,5.725338904220265,14.310487775398917,-8.820763436,3.4147,2.3333991,1,0,0,0,0.0,1
0,SrSmMnSnO6,ABCDE6,129.33988826122538,6.517171411043687,12.93398882612254,-7.538883969000001,0.0,5.61089254,0,1,1,1,4.0000008,1
0,SrVO3,ABC3,59.35966561911505,5.21885807260035,11.871933123823007,-8.00291119,0.0,4.66976042,0,1,1,1,0.999467,0
2,Ba4CaZr5O15,AB4C5D15,379.448944182161,5.625573667355732,15.177957767286442,-8.67003886,3.0906,2.1001909,0,0,0,0,0.0001762,1
2,Ba4CaZr5O15,AB4C5D15,755.225254913151,5.652930631252725,15.10450509826302,-8.6832087318,3.1377,2.06909391,0,0,0,0,0.0259906,1
1,Ba4CaZr5O15,AB4C5D15,379.4186292507102,5.626023141543212,15.176745170028408,-8.666303106400001,3.0705,5.19112563,0,0,0,0,0.0020311,1
0,BaCaCeCrO6,ABCDE6,144.02480967567567,5.367154134904935,14.402480967567566,-7.870909555999999,0.0,3.38190515,0,1,1,1,2.0000001,1
1,BaCaCeNbO6,ABCDE6,608.6521560497171,5.52654886760347,15.216303901242927,-8.31189844775,0.0,5.75205053,0,1,1,1,4.0484239,1
0,BaCaCeNbO6,ABCDE6,158.43781931124997,5.307675115707253,15.843781931124996,-8.219069874999999,0.0,5.66847193,0,1,1,1,1.0,1
6,BaCaCeNbO6,ABCDE6,305.3702009379804,5.507652471408203,15.26851004689902,-8.309714018,0.0,5.6579376,0,1,1,1,1.9999998,1
0,BaCrInWO6,ABCDE6,132.52035601941864,7.317498095336429,13.252035601941865,-7.931132226999999,0.1824000000000003,5.28768886,0,0,1,1,2.9999999,1
0,BaNdZr2O6,ABC2D6,596.7964330130764,6.2327726982183,14.919910825326909,-8.8185776295,0.0,6.2456416,0,1,1,3,0.0193512,1
2,BaNdZr2O6,ABC2D6,149.30783924349257,6.228233783511953,14.930783924349257,-8.822412154,0.0,6.36287759,0,1,0,0,6.55e-05,1
2,BaNdZr2O6,ABC2D6,594.8438390204296,6.253231974636317,14.87109597551074,-8.81202764175,0.0,6.22557549,0,1,0,0,0.0007396,1
1,BaNdZr2O6,ABC2D6,146.84567613770758,6.332662649511291,14.684567613770758,-8.848252151,0.0,6.1905169,0,1,0,0,4.46e-05,1
0,BaSrGdNbO6,ABCDE6,156.86274790437076,6.045625926397795,15.686274790437077,-9.133214481,2.6155000000000004,2.18344611,1,0,1,1,7.0000002,1
1,BaSrGdNbO6,ABCDE6,615.58948552653,6.162116266852937,15.38973713816325,-9.1634141535,2.801,1.97954967,1,0,1,1,27.9999999,1
6,BaSrGdNbO6,ABCDE6,306.7408505189634,6.183287905815058,15.337042525948169,-9.166736428,2.7823,1.90374266,1,0,1,1,14.000001,1
6,BaSrSmWO6,ABCDE6,309.48105956537364,7.030421903382092,15.474052978268682,-8.187064604,2.0034,3.31812423,0,0,1,1,1.9999999,1
1,BaSrSmWO6,ABCDE6,620.3011621549178,7.015245344025028,15.507529053872949,-8.179395168000001,1.7599000000000005,3.55527465,1,0,1,1,4.0000002,1
2,BaSrSmWO6,ABCDE6,309.6708001531352,7.026114243817485,15.48354000765676,-8.119897208000001,0.0,4.47896454,0,1,1,1,2.0,1
0,BaSrSmWO6,ABCDE6,157.3547794560893,6.913620378647173,15.73547794560893,-8.088204158,0.0,4.93140854,0,1,1,1,1.0,1
0,Ca3AuN,ABC3,113.72960889704892,4.835878841491963,22.745921779409784,-4.354907296,0.0,3.71845379,0,1,0,0,8.1e-06,0
0,CaEuMgBiO6,ABCDE6,135.72787397666076,6.3780453556446615,13.572787397666076,-7.111559643,0.0,3.23153714,0,1,1,1,6.0000004,1
0,Cs2NaYCl6,ABC2D6,324.9736619062826,3.0169306050893194,32.497366190628256,-4.567437064,5.0774,-0.80869628,1,0,0,0,0.00023,0
0,CsNa7Ta8O24,AB7C8D24,512.6500028736958,6.88445103928726,12.816250071842395,-8.61044887125,0.0,1.59211377,0,1,0,0,0.0019051,1
1,EuNbO3,ABC3,131.97665110991449,7.369784191063378,13.197665110991448,-10.19022345,0.0,5.79016993,0,1,1,1,13.4203772,0
0,EuNbO3,ABC3,67.08132537327681,7.24970348697676,13.416265074655362,-10.171373174,0.0,5.83232538,0,1,1,1,7.1246712,0
1,H5PbCI3N2,ABC2D3E5,268.03281328848675,3.921472794978946,22.33606777404056,-4.7875548425,1.4326,1.32780716,1,0,0,0,0.0004866,1
0,K2NaAlF6,ABC2D6,140.55938319393692,2.8608076763116155,14.055938319393691,-5.3266636300000005,6.8580000000000005,-1.67955743,1,0,0,0,0.0,0
0,K2SbAuCl6,ABC2D6,306.3366631413571,3.304641917004424,30.633666314135716,-3.535480913,0.351,1.71499752,0,0,0,0,0.0006612,1
0,K2TaCuI6,ABC2D6,374.89343513772434,4.801948929208554,37.48934351377243,-3.540948599,0.0,3.50567539,0,1,1,1,1.989798,1
0,KEuZrFeO6,ABCDE6,128.51104052594565,5.609525864804293,12.851104052594565,-8.331616653000001,0.0,2.23185631,0,1,1,1,9.9966919,1
0,KPrHf2O6,ABC2D6,140.47657646015335,7.482328706532936,14.047657646015336,-9.106518649,2.8145999999999995,2.38323062,1,0,0,0,0.0,1
0,KSmEuWO6,ABCDE6,153.1145896493127,6.73759662079178,15.311458964931273,-8.735531117,0.4419000000000004,3.9122771,0,0,1,1,7.0000002,1
1,KSmEuWO6,ABCDE6,603.0975460108815,6.842172372537003,15.077438650272038,-8.753935059,0.1638999999999999,4.15990374,1,0,1,1,27.9982378,1
0,Mg6Bi2PN,ABC2D6,204.3938955517204,4.945785980768619,20.439389555172035,-3.604673167,0.2260999999999997,5.1079883,1,0,0,0,0.0002385,1
1,SmDyO3,ABC3,298.02426282522254,8.042555098332654,14.901213141261128,-8.694715268500001,4.5279,1.91354074,1,0,0,0,6.98e-05,1
5,Sr2MnNbO6,ABC2D6,524.6461563686585,5.30567182111566,13.11615390921646,-8.223818825250001,1.7478999999999996,2.88476148,0,0,1,2,2e-07,1
0,Sr2MnNbO6,ABC2D6,130.71834738759054,5.3236603421251765,13.071834738759057,-8.197523045,0.0,3.68909279,0,1,1,1,3.9999946,1
5,Sr2MnNbO6,ABC2D6,521.3181162052191,5.339542673414509,13.032952905130475,-8.228456148000001,1.2020000000000004,3.10447938,0,0,1,2,1.3e-06,1
2,Sr2MnNbO6,ABC2D6,523.1382187495185,5.320965335997817,13.078455468737962,-8.218083868250002,0.8101000000000003,3.54540713,0,0,1,2,1.6e-06,1
1,Sr2MnNbO6,ABC2D6,524.4632133777174,5.307522542857717,13.111580334442934,-8.22270538175,1.2788000000000004,3.13841928,0,0,1,1,15.998114,1
2,Sr2MnNbO6,ABC2D6,519.9883540974803,5.353197443687364,12.999708852437006,-8.22229925425,1.5101000000000004,3.27859513,0,0,1,2,0.0,1
5,Sr2YIrO6,ABC2D6,283.26092665553847,6.476107553925083,14.163046332776924,-7.607969043999999,0.0,3.64002767,0,1,1,1,4.0006066,0
3,Ba3MgIrRuO9,ABCD3E9,425.6214891990041,6.816352857774816,14.187382973300137,-7.043569742000001,0.0,3.76417042,0,1,1,1,7.9887054,1
3,BaSrBiSbO6,ABCDE6,158.0597149296854,6.846440343459721,15.805971492968542,-6.584089173000001,1.9536999999999995,4.16077692,0,0,0,0,2.01e-05,1
1,BaSrBiSbO6,ABCDE6,632.1523382414284,6.847377402609896,15.80380845603571,-6.57814270425,1.8227,4.09564912,0,0,0,0,0.0,1
0,BaSrBiSbO6,ABCDE6,159.94829455071385,6.76560142144705,15.994829455071386,-6.540485896999999,1.6669,4.50072989,0,0,0,0,0.0,1
6,BaSrBiSbO6,ABCDE6,315.82632061828406,6.852794326019784,15.791316030914205,-6.585667770500001,1.7818999999999994,4.14306544,0,0,0,0,0.0,1
0,BaSrFeBiO6,ABCDE6,143.48096370650927,6.779240613305654,14.348096370650929,-6.775054337,0.0837000000000003,3.1262558,1,0,1,1,5.0,1
0,BaSrYVO6,ABCDE6,142.39113129557563,5.373656596031897,14.239113129557564,-8.035645266,1.6099000000000006,2.52376344,0,0,0,0,0.0,1
1,BaSrZr2O6,ABC2D6,150.95008463315156,5.537599316502053,15.095008463315157,-8.662091153999999,3.123,2.05632204,0,0,0,0,0.0,1
2,BaSrZr2O6,ABC2D6,150.97332735901568,5.536746789071477,15.097332735901569,-8.661697,3.1698000000000004,2.10675189,0,0,0,0,0.0,1
2,BaZrO3,ABC3,149.38125101812372,6.148305055783228,14.938125101812371,-8.701104963,3.1163,2.20775892,0,0,0,0,0.0,0
0,BaZrO3,ABC3,74.74546324141521,6.143794292287296,14.949092648283042,-8.701280686,3.0377,2.15629621,0,0,0,0,0.0,0