Shape,formula_pretty,formula_anonymous,volume,density,density_atomic,energy_per_atom,band_gap,efermi,is_gap_direct,is_metal,is_magnetic,ordering,total_magnetization,theoretical
0,BaNdEuSbO6,ABCDE6,160.31925969722934,6.745861317005348,16.031925969722934,-8.019008807,0.6954000000000002,5.44362118,0,0,1,1,6.9980835,1
6,BaNdEuSbO6,ABCDE6,314.3176508922666,6.881519312023356,15.715882544613333,-8.0622746245,0.1501999999999999,6.01886169,1,0,1,1,13.9999949,1
1,BaNdEuSbO6,ABCDE6,633.855704463556,6.8248434761836565,15.8463926115889,-8.050680652,0.1288999999999998,6.00358554,0,0,1,1,27.9999972,1
2,BaNdFeCoO6,ABCDE6,121.01788773693067,6.755660580235835,12.10178877369307,-7.531513359,0.0,3.35778813,0,1,1,1,6.0003537,1
6,Ba2EuMgNbO6,ABCD2E6,178.91540129422802,5.938313280032268,16.265036481293457,-7.981825734545453,0.1968999999999994,5.10496438,0,0,1,1,6.0,1
0,Ba2PrRuO6,ABC2D6,160.75765515925903,6.328114261881767,16.0757655159259,-7.496035175,0.1345,3.11184887,1,0,1,1,3.0003193,0
5,Ba2PrRuO6,ABC2D6,310.71604751091206,6.548054524182577,15.535802375545604,-7.500949873000001,0.1636000000000002,3.08418499,1,0,1,1,6.0035408,0
5,Ba2PrRuO6,ABC2D6,319.43113511363754,6.369402969801779,15.971556755681878,-7.4963660875,0.1654,3.07751303,1,0,1,1,5.9995591,0
0,Ba2SrMnO6,ABC2D6,635.8797681194807,5.360778656328691,15.896994202987017,-6.83872741825,0.0,1.60032627,0,1,1,3,3.9999973,1
0,Ba2SrMnO6,ABC2D6,159.38121858513105,5.346945391663863,15.938121858513105,-6.841910231,0.0,1.57039488,0,1,1,3,0.9999999,1
4,Ba3CeIr2O9,AB2C3D9,458.4504055965205,7.827476862744966,15.281680186550684,-7.508992993000001,0.0,4.61975584,0,1,0,0,0.00042,1
2,Ba4CaZr5O15,AB4C5D15,380.78904450006735,5.605775742050589,15.231561780002696,-8.6717129944,3.0277,2.12401476,0,0,0,0,0.0250925,1
5,Ba2ErReO6,ABC2D6,299.99914012234456,8.016180116218894,14.999957006117228,-8.112151233,0.0,4.66171688,0,1,1,1,4.0012384,1
0,Ba2ErReO6,ABC2D6,150.2121092536985,8.004837805285971,15.021210925369848,-8.11454191,0.0,4.4583645,0,1,1,1,2.0021726,1
0,Ba2ZrSnO6,ABC2D6,150.10594994636702,6.422683964246511,15.0105949946367,-7.747614924,3.6894,3.17851532,0,0,0,0,6.74e-05,1
0,Ba4Cu3SeO12,AB3C4D12,264.0203783456801,6.357982517475344,13.201018917284006,-5.9416399215,0.0,2.57924376,0,1,0,0,1.4725557,1
0,BaCaCeNiO6,ABCDE6,136.2984769041584,5.7529951829308805,13.62984769041584,-7.114501899999999,1.2559999999999998,3.59454724,0,0,0,0,0.0,1
4,AlCrO3,ABC3,102.8053083398928,4.101895980166584,10.28053083398928,-8.170159632,0.0,5.82751987,0,1,1,1,5.9992474,1
1,AlCrO3,ABC3,191.0202958801217,4.4152028880097225,9.551014794006084,-8.3687851905,1.8028999999999995,5.93868915,0,0,1,1,12.0001663,1
2,AlCrO3,ABC3,54.568296419178175,3.863934818304003,10.913659283835637,-7.202312774000001,0.0,4.80263143,0,1,1,1,2.7888378,1
4,AlCrO3,ABC3,306.4745698006157,4.1278793339382505,10.215818993353857,-8.192928276,1.1578,6.34190014,0,0,1,1,17.9977877,1
1,AlTlO3,ABC3,214.2828019174193,8.659458159188336,10.714140095870968,-6.3803607985,0.7376999999999994,6.25299205,1,0,0,0,0.0012436,1
5,Ba10Zn4Cu(WO6)5,AB4C5D10E30,701.9074954361249,7.328233854850629,14.0381499087225,-7.438444464200001,0.0,3.07059983,0,1,1,1,0.9996566,1
0,Ba2GdMoO6,ABC2D6,156.9748269259925,6.599219606158651,15.697482692599248,-8.875755319,0.0,4.58265496,0,1,1,3,6.0,0
2,Ba2GdMoO6,ABC2D6,156.85067110139718,6.6044432468745935,15.685067110139718,-8.85359767,0.0,4.57989558,0,1,1,3,5.9992498,1
6,Ba2GdMoO6,ABC2D6,158.00130671201794,6.556346761178886,15.800130671201794,-8.885329848,0.9083,3.60971201,1,0,1,3,6.0007546,0
0,Ba2CeHfO6,ABC2D6,163.33345195564382,7.007365395148178,16.333345195564384,-8.607437084,2.2198,2.59260701,0,0,0,0,0.0,1
0,Ba2CeHfO6,ABC2D6,649.4676511793435,7.049078900393297,16.236691279483587,-8.609238071250001,2.1719000000000004,2.65547251,0,0,0,0,0.0,1
5,Ba2NdTaO6,ABC2D6,162.39709203349992,7.115090267844989,16.239709203349992,-8.509693551,3.4981,1.93676657,0,0,0,0,2.53e-05,1
0,Ba2NdTaO6,ABC2D6,164.50543222357794,7.023901602735482,16.450543222357794,-8.497411181,3.3164,2.08566024,1,0,0,0,8.69e-05,1
5,Ba2LaNbO6,ABC2D6,166.57630491209474,6.0057287427805,16.657630491209474,-8.244283973,3.0639,2.70505773,0,0,0,0,1.42e-05,0
0,Ba2LaNbO6,ABC2D6,672.5071658267691,5.950343152384678,16.81267914566923,-8.23075752375,2.9716,2.74257084,1,0,0,0,2e-06,1
0,Ba2LaNbO6,ABC2D6,169.38405274168483,5.9061764439087465,16.938405274168485,-8.220792245,2.9563,2.84484316,0,0,0,0,0.0,1
0,Ba2NaOsO6,ABC2D6,148.03908523145373,6.549211138369004,14.803908523145372,-6.995648841,0.0,3.23211052,0,1,1,1,0.9519533,0
0,Ba2ZnWO6,ABC2D6,140.91578560646107,7.304839316843029,14.091578560646107,-7.42898842,3.3679,2.36787439,0,0,0,0,0.0,0
5,Ba2CeBiO6,ABC2D6,347.4554673326278,6.879544527737553,17.37277336663139,-7.229984915,0.0,3.97084917,0,1,0,0,0.2405429,1
0,Ba2CeBiO6,ABC2D6,700.566050781625,6.8240114012198125,17.514151269540626,-7.22187966975,0.0,4.09108579,0,1,0,0,0.538024,1
0,Ba2CeBiO6,ABC2D6,176.47122599019832,6.77259237450257,17.64712259901983,-7.199327429,0.0,4.33624744,0,1,1,1,0.2077213,1
0,Ba2CrSnO6,ABC2D6,137.8321835292371,6.522015353672154,13.783218352923711,-7.222270675999999,0.0,3.45938813,0,1,1,1,2.0000003,1
0,Ba2SrUO6,ABC2D6,181.7963314551873,6.360041465339659,18.17963314551873,-8.089674314,2.2553,2.50839704,0,0,0,0,5.48e-05,0
5,Ba2SrUO6,ABC2D6,347.77879236140313,6.649239296340392,17.388939618070157,-8.160248024000001,2.0496,2.22298749,0,0,0,0,1e-07,0
3,Ba2SrUO6,ABC2D6,173.88826603169127,6.649282511626746,17.38882660316913,-8.151247118,2.2601000000000004,2.39530549,0,0,0,0,2e-07,0
0,AcNiO3,ABC3,58.35821779959113,9.494942767086055,11.671643559918229,-7.404515516000001,0.0,6.06375679,0,1,0,0,2.6e-06,1
6,Ba3SrNd2(IrO6)2,AB2C2D3E12,312.8208672922135,7.243203339821074,15.641043364610676,-7.385541315499999,0.0,3.49578232,0,1,1,1,4.0007622,1
5,Ba4Sr2Lu3(BiO6)3,A2B3C3D4E18,468.8399333108395,7.665807226069695,15.627997777027984,-7.042183137666667,1.0072,2.33936174,0,0,0,0,0.0001288,1
5,BaLaMnRuO6,ABCDE6,270.9554025261497,6.474556518156964,13.547770126307489,-8.041454671,0.0,5.09907307,0,1,1,1,15.9874466,1
3,Ba2TiMnO6,ABC2D6,541.339655346622,5.809227201089388,13.533491383665549,-8.03005002425,1.1587999999999998,2.69600923,0,0,1,2,0.0002258,1
0,BaCaCeGeO6,ABCDE6,142.36206630164068,5.670635276578442,14.236206630164068,-7.456679169,1.9787000000000003,3.26878158,1,0,0,0,0.0,1
0,BaCaEuBiO6,ABCDE6,161.12083266401467,6.5376771285076085,16.112083266401466,-7.207350592,0.0,2.2759951,0,1,1,1,5.9999998,1
0,AlFe3C,ABC3,54.43025908535758,6.300659849414099,10.886051817071516,-7.837073891999999,0.0,7.02813427,0,1,1,1,5.8869668,0
0,BIrO3,ABC3,39.84966404394991,10.460284216710496,7.969932808789982,-6.365849548,0.0,7.91480388,0,1,0,0,0.0074702,1
3,BaCeO3,ABC3,172.44455093202092,6.267612673875872,17.24445509320209,-8.12700298,2.2108000000000003,2.79510007,1,0,0,0,0.0,0
1,BaCeO3,ABC3,172.26711111864293,6.274068485527652,17.226711111864294,-8.128615542999999,2.2112,2.8464305,0,0,0,0,0.0,0
1,BaCeO3,ABC3,344.64733173556965,6.272009404625958,17.232366586778483,-8.129798318,2.2207000000000003,2.8039082,1,0,0,0,0.0,0
0,BaCeO3,ABC3,89.56619857936725,6.033613517741434,17.913239715873452,-8.089464422,2.2990000000000004,3.19712188,0,0,0,0,0.0001896,0
1,Ba2MnNbO6,ABC2D6,562.1426590706826,6.126422884651936,14.053566476767063,-8.2424357345,1.1627999999999998,2.67334604,0,0,1,1,15.9994692,1
5,Ba2MnNbO6,ABC2D6,560.8591858417774,6.1404426242940735,14.021479646044437,-8.241814265250001,1.1475,3.85554962,1,0,1,1,16.0006208,1
2,Ba2MnNbO6,ABC2D6,280.2499845775222,6.144377949139672,14.01249922887611,-8.240628975000002,0.1857999999999999,3.11925577,0,0,1,2,0.0,1
0,Ba2MnNbO6,ABC2D6,139.68693189582763,6.16364681403778,13.968693189582762,-8.219613778,0.0,3.05612301,0,1,1,1,4.0000187,1
2,Ba2MnNbO6,ABC2D6,558.0898362126841,6.170912687356783,13.952245905317104,-8.230486572500002,0.0764,3.17088917,0,0,1,1,16.0006634,1
0,Ba2CaSeO6,ABC2D6,143.5908969776417,5.6629405886883,14.35908969776417,-6.452516751,2.01,2.97153411,1,0,0,0,0.0,1
2,Ba2CuWO6,ABC2D6,141.4389225651285,7.255948844691283,14.143892256512853,-7.502765947,0.0,2.96826158,0,1,1,1,0.9987881,0
2,Ba2CuWO6,ABC2D6,141.823721275345,7.236261871794743,14.1823721275345,-7.503046353,0.0,2.9720813,0,1,1,1,0.9983639,0
0,Ba2DyWO6,ABC2D6,154.86957604399842,7.687698255459252,15.486957604399842,-8.191476751,0.0,4.95070192,0,1,1,1,1.0,1
0,Ba2YbNbO6,ABC2D6,157.70882810203392,6.702819592178128,15.770882810203393,-7.676843037,0.0,1.42338128,0,1,0,0,0.9994241,0
4,Ba3LiRu2O9,AB2C3D9,429.1878395802877,5.920048311259367,14.306261319342925,-7.015275192000001,0.0,3.04036996,0,1,1,1,9.989218,0
0,AcFeO3,ABC3,61.79731063258672,8.889999465919495,12.359462126517345,-8.258555312,0.9887999999999996,6.50904465,0,0,1,1,4.2542759,1
0,Ba2DyUO6,ABC2D6,170.54706525889716,7.508621562409597,17.054706525889717,-8.599756791,0.8682999999999996,5.32664326,0,0,1,1,0.9999581,1
6,Ba3Tb2WO9,AB2C3D9,486.2607380530605,7.223680931379778,16.20869126843535,-8.094538717333332,2.3808,2.44972093,0,0,0,0,0.0024288,1
1,BaSrPrNbO6,ABCDE6,639.7809820289184,5.759448379226604,15.99452455072296,-8.161678231,2.962,1.92788692,1,0,0,0,0.0,1
6,BaSrPrNbO6,ABCDE6,321.1705585589803,5.736493339456859,16.058527927949015,-8.171400739000001,3.0167,1.73448195,0,0,0,0,0.0,1
0,BaSrPrNbO6,ABCDE6,164.85102550851602,5.588053711889264,16.4851025508516,-8.109862083,2.8679,1.93188295,1,0,0,0,0.0,1
0,BaTbEuBiO6,ABCDE6,163.74626086221215,7.638077618901772,16.374626086221216,-7.789953129,0.0,4.33187642,0,1,1,1,6.9681771,1
4,AlBiO3,ABC3,409.82569070936927,6.903328622755919,13.660856356978975,-6.532072210333334,0.7618,6.4488318,0,0,0,0,8.08e-05,1
0,AlBiO3,ABC3,54.31911150734789,8.680681447425108,10.86382230146958,-6.928135245999999,1.5859999999999994,7.11125673,0,0,0,0,3.66e-05,1
3,AlBiO3,ABC3,113.6752137295987,8.296037245622959,11.36752137295987,-6.9964094160000005,2.977899999999999,6.43632044,0,0,0,0,0.0010866,0
0,AlBiO3,ABC3,78.10549111437122,6.037051899615939,15.621098222874243,-5.384721586,0.0,4.02308639,0,1,0,0,0.384138,1
1,AlBiO3,ABC3,273.8452642962739,6.8874939972276366,13.692263214813696,-6.8149549075,0.9480000000000004,5.04158517,1,0,0,0,7.92e-05,1
4,AlBiO3,ABC3,147.97103559945393,6.373232458531104,14.797103559945391,-6.184146843,0.6410999999999998,5.4482908,0,0,0,0,4.06e-05,1
5,AlBiO3,ABC3,284.0844556688522,6.639249618811863,14.204222783442608,-6.971450301500001,2.8885000000000005,4.08182025,0,0,0,0,0.0001435,1
0,Ba2DyTaO6,ABC2D6,155.24798343555557,7.63802572562299,15.524798343555556,-8.580694461,3.3837,2.16882963,1,0,0,0,1e-06,1
0,Ba2CdMoO6,ABC2D6,152.17224725980637,6.318198368159635,15.217224725980635,-7.002457366,2.5376000000000003,2.17339806,0,0,0,0,2.36e-05,1
0,Ba2EuRuO6,ABC2D6,154.02770815592885,6.7238052414604885,15.402770815592884,-7.932665236,0.0,2.94411199,0,1,1,3,3.9871288,1
0,Ba2MnReO6,ABC2D6,142.3570041081095,7.136355836899488,14.23570041081095,-8.151441510000002,0.0,4.4680543,0,1,1,3,3.9999996,0
0,Ba2TbPrO6,ABC2D6,183.7116715881325,6.0603872883094265,18.37116715881325,-7.277763265,0.0,1.20419996,0,1,1,1,1.9999986,1
0,Ba2TbPrO6,ABC2D6,729.9620832700627,6.100940882952053,18.249052081751568,-7.330847072749999,0.0,1.12902226,0,1,1,1,7.9999981,1
0,Ba2YReO6,ABC2D6,152.36560483122406,7.037776705493275,15.236560483122409,-8.274656144,0.0,4.66673993,0,1,1,1,2.0007899,0
0,BaCaGdNbO6,ABCDE6,155.2113537813489,5.601317984360231,15.52113537813489,-9.088813685,2.5615999999999994,2.16563632,1,0,1,1,7.0000002,1
1,BaCaGdNbO6,ABCDE6,595.6660673554732,5.83809080260096,14.89165168388683,-9.17988657325,2.8243,2.08287532,0,0,1,1,28.0000007,1
0,BaLaMgBiO6,ABCDE6,142.739869877952,7.044143318741315,14.2739869877952,-6.827639585,1.0829000000000004,4.54860199,1,0,0,0,2.97e-05,1
3,Ba2LiHoRuO6,ABCD2E6,160.00611512945466,6.679177187294609,14.54601046631406,-7.090278494545455,0.0,3.69044735,0,1,1,1,1.9999658,1
1,Ba2LiHoRuO6,ABCD2E6,156.73609960725452,6.818526151143443,14.248736327932228,-7.093447124545454,0.0,4.04059813,0,1,1,1,1.9993868,1
3,Ba2LiHoRuO6,ABCD2E6,159.47193046543651,6.701550491557618,14.497448224130592,-7.035653416363636,0.0,3.83289795,0,1,1,1,2.0000454,1
0,Ba2MnMoO6,ABC2D6,287.70721948597884,6.020136434621891,14.385360974298942,-7.9829948435,1.2653999999999996,3.64419988,0,0,1,2,0.0,0
0,BaCaTbFeO6,ABCDE6,137.88698744469158,5.878932284387189,13.788698744469158,-7.288378821,0.1800999999999999,2.49765787,0,0,1,3,3.0000005,1
1,BaCeEuSbO6,ABCDE6,646.8231571120871,6.645650183408381,16.170578927802175,-8.0522714345,0.0,6.19130509,0,1,1,1,26.089363,1
0,BaCeEuSbO6,ABCDE6,160.60589344271634,6.6911623548669885,16.060589344271634,-8.124282896,0.0,7.24072418,0,1,1,1,7.9924321,1
6,BaCeEuSbO6,ABCDE6,314.5396822947796,6.833097180829181,15.72698411473898,-8.170937519999999,0.0,6.21204771,0,1,1,1,15.7690305,1
0,BaEuNbBiO6,ABCDE6,162.34786829434833,7.02860828070721,16.23478682943483,-8.330407044000001,0.8959000000000001,4.91927612,1,0,1,1,6.9999999,1
1,BaEuNbBiO6,ABCDE6,636.0638477901509,7.175880694450556,15.901596194753774,-8.3953505845,0.0876999999999998,5.46929952,0,0,1,1,27.999984,1
1,Ag6S2IBr,ABC2D6,242.44988095539424,6.288392755380496,24.244988095539423,-3.13384903,0.5861000000000001,2.71360918,0,0,0,0,0.000591,1
0,Ba2PrTaO6,ABC2D6,166.6147794446964,6.901747578754598,16.66147794446964,-8.476449687,3.3056,2.07675663,1,0,0,0,0.0001013,1
5,Ba2PrTaO6,ABC2D6,164.22808722526935,7.00204922340609,16.422808722526934,-8.491969567,3.4861000000000004,1.94234253,0,0,0,0,2.95e-05,1
6,Ba4Pr3BiO12,AB3C4D12,364.9790239343347,6.246734415315658,18.24895119671673,-7.118232793,0.0,1.41306999,0,1,1,1,1.4180607,1
3,BaBiO3,ABC3,87.31982579640245,7.498409977429533,17.46396515928049,-6.34115627,0.0,5.02217244,0,1,0,0,1.87e-05,1
0,BaBiO3,ABC3,173.5986381818341,7.543375453133814,17.35986381818341,-6.339119297,0.0,4.10001651,0,1,0,0,0.0002449,0
5,BaBiO3,ABC3,334.6660467207428,7.825829472632553,16.733302336037138,-6.364005464,0.08,3.755188,0,0,0,0,0.0,0
3,AgBO3,ABC3,109.9353807286683,5.035218550839825,10.99353807286683,-6.374372164,0.0,1.30686632,0,1,0,0,0.0013824,1
0,AgBO3,ABC3,42.26372548752631,6.548744367105115,8.452745097505261,-5.419856482,0.0,4.27022569,0,1,1,1,1.9870728,1
0,Ba2SmMoO6,ABC2D6,159.4202749756252,6.426223022831533,15.94202749756252,-7.886229705,0.0,4.15833989,0,1,1,1,0.9999578,0
2,Ba2SmMoO6,ABC2D6,159.77524517029462,6.411945982386548,15.977524517029462,-7.92697244,0.9085,3.54262786,1,0,1,1,1.0001613,0
0,Ba2ScOsO6,ABC2D6,140.55223062879685,7.157587322095124,14.055223062879683,-7.989197144,0.0,4.15776542,0,1,1,1,2.9958452,1
0,Ba2UNiO6,ABC2D6,150.17182867549965,7.379536273293804,15.017182867549966,-8.14418164,1.6246,3.77002273,0,0,1,1,1.9877867,0
1,Ba3Dy2MoO9,AB2C3D9,482.89915919211785,6.718613970191636,16.09663863973726,-7.868725785,1.3959000000000006,2.68298483,0,0,0,0,0.0084242,1
0,Ba3SbAs,ABC3,240.3848551212912,4.204541193613696,48.07697102425824,-3.765989692,0.1486999999999998,2.10679868,1,0,0,0,0.0016743,1
0,Ba3SbAs,ABC3,273.7331402002433,3.692311515291748,54.74662804004866,-3.370630302,0.0,1.51963173,0,1,0,0,0.0001084,1
5,Ba4Ca(RhO3)4,AB4C4D12,327.637184310847,6.04639683695227,15.601770681468905,-6.673372890952381,0.0,3.21853228,0,1,1,1,1.9680183,1
5,Ba4Ca(RhO3)4,AB4C4D12,309.494917251511,6.400830270421448,14.737853202452904,-6.729624220476191,0.0,3.52477535,0,1,1,1,0.7587732,1
0,AlFe3O,ABC3,69.61085155162793,5.0217736515980285,13.922170310325589,-6.27797304,0.0,5.61980333,0,1,1,1,10.3525381,1
0,Ba2UTiO6,ABC2D6,151.3618029378743,7.202747163592851,15.13618029378743,-8.779798721999999,0.0,6.29791965,0,1,1,1,1.9988726,1
1,Ba3LiTi5(SbO7)3,AB3C3D5E21,859.7378870381993,5.251701506311816,13.0263316217909,-7.933766534393939,2.3975,2.91765986,0,0,0,0,0.0048256,1
6,Ba3LiTi5(SbO7)3,AB3C3D5E21,862.6470747897667,5.233990687897723,13.070410224087375,-7.928865587272727,2.3328,3.10076309,0,0,0,0,0.0039971,1
0,AlCo3C,ABC3,51.59979334082594,6.9444222571555,10.319958668165189,-7.083075222,0.0,7.12479403,0,1,0,0,0.0001511,0
0,Ba2DyNbO6,ABC2D6,156.79671133235095,6.630188428482101,15.679671133235097,-8.283141384,2.8514,2.02778421,1,0,0,0,0.0,0
0,Ba2DyNbO6,ABC2D6,627.0175191543468,6.631978911861283,15.675437978858673,-8.27891635725,2.8705,1.94036522,1,0,0,0,0.0,1
2,Ba2FeMoO6,ABC2D6,275.3149436666431,6.3020508797750825,13.765747183332156,-7.784411908,0.8640999999999996,3.7112748,1,0,1,2,3.2e-06,1
5,Ba2FeMoO6,ABC2D6,275.5764878229392,6.296069728794797,13.77882439114696,-7.785249331,0.9037000000000002,3.8448601,0,0,1,3,2.00003,1
5,Ba2FeMoO6,ABC2D6,274.8251874427259,6.313281541238584,13.741259372136296,-7.7851213155,0.7715000000000001,4.4795374,0,0,1,3,2.00003,1
0,Ba2FeMoO6,ABC2D6,136.65139581841586,6.3484488122432,13.665139581841586,-7.781958845,1.6476000000000002,3.03934132,0,0,1,3,3.9999999,0
6,Ba2LiLaIrO6,ABCD2E6,171.25686626351407,6.871824142603725,15.568806023955824,-6.976728533636364,0.0,4.60388645,0,1,1,1,0.9999062,1
3,Ba2LiLaIrO6,ABCD2E6,173.34300871031627,6.789123351048857,15.75845533730148,-6.996621929090909,0.0,4.41735156,0,1,1,1,0.9998885,1
6,Ba2LiLaIrO6,ABCD2E6,169.49671162796403,6.943185250457178,15.408791966178548,-6.956468373636364,0.0,4.85890083,0,1,1,1,0.9995757,1
0,Ba2PrTiO6,ABC2D6,645.4041178986596,5.7573053818384246,16.13510294746649,-7.8396696795,0.0,1.94088423,0,1,0,0,4.0000015,1
0,Ba2PrTiO6,ABC2D6,162.11571046447114,5.730148840591511,16.211571046447112,-7.839757988,0.0,1.95949806,0,1,0,0,0.9999999,1
0,Ba2SrIrO6,ABC2D6,163.12124935980196,6.621821156166579,16.312124935980197,-6.862316379000001,0.0,2.82800517,0,1,1,1,2.9981241,0
0,AlFe3H,ABC3,50.634665689260885,6.412129531661077,10.126933137852175,-6.715165902000001,0.0,6.77516341,0,1,1,1,7.321186,1
0,BTeO3,ABC3,44.47169373442934,6.960377106887915,8.894338746885868,-5.755480568,0.0,11.12084581,0,1,0,0,0.0015565,1
4,Ba3LuIr2O9,AB2C3D9,442.1209394761052,8.378370047191947,14.737364649203506,-7.397866795333334,0.0,3.76093146,0,1,0,0,1.318044,0
3,Ba3NiSbRuO9,ABCD3E9,436.297981011785,6.374999969119126,14.543266033726166,-6.9293327940000005,0.5658000000000003,4.34632818,0,0,1,1,9.9987107,1
3,Ba3Ta2MnO9,AB2C3D9,869.85550081044,7.4283051373629405,14.497591680174,-8.819092332,2.3735,3.03439264,0,0,1,2,0.0,1
4,Ba3ZnSb2O9,AB2C3D9,449.2934044927083,6.393184777789698,14.97644681642361,-6.479014764,1.9685,5.05394167,1,0,0,0,0.0050808,1
5,Ba2LaBiO6,ABC2D6,176.63293497795286,6.755011726737,17.663293497795287,-7.023347214,1.8278,2.95182626,0,0,0,0,0.0002193,0
0,Ba2LaBiO6,ABC2D6,178.5856855846996,6.681148845707204,17.858568558469962,-6.995150351,1.9852,3.05735652,0,0,0,0,0.0,1
0,Ba2LaBiO6,ABC2D6,713.0588110990531,6.693178899311297,17.826470277476325,-7.00979694175,1.7696999999999994,2.89566585,1,0,0,0,0.0,1
5,Ba2NdNbO6,ABC2D6,163.76848158667022,6.162807452590849,16.376848158667023,-8.213877411,2.9872999999999994,1.93502928,0,0,0,0,8.1e-05,0
0,Ba2NdNbO6,ABC2D6,165.71147910643413,6.090547403620582,16.57114791064341,-8.198297198,2.85,1.91639325,1,0,0,0,7.57e-05,0
0,Ba2NdNbO6,ABC2D6,655.570540296342,6.15813894483782,16.38926350740855,-8.201882715,2.9195,1.95534536,1,0,0,0,9e-07,1
0,Ba2ErPaO6,ABC2D6,171.95991058647292,7.425356719266165,17.19599105864729,-8.526972167,3.4587,6.235854,0,0,0,0,1.72e-05,1
1,Ba2NaUO6,ABC2D6,331.0264359484149,6.337325780658486,16.551321797420748,-7.6925907205,0.0,2.42912026,0,1,0,0,2.0000204,1
3,Ba2PrMgRuO6,ABCD2E6,181.98859891007663,5.811639952546111,16.54441808273424,-6.937407136363637,0.0,4.14954792,0,1,1,1,1.0,1
3,Ba2NiTeO6,ABC2D6,289.3268995963374,6.392955090528779,14.46634497981687,-6.522100524,0.0,4.84130839,0,1,1,2,2.7e-06,0
4,Ba3MgRu2O9,AB2C3D9,419.45130482226,6.194950202208367,13.981710160742,-7.127181655,0.0,3.59743562,0,1,1,1,8.0054798,0
0,AlMoO3,ABC3,64.37132382637047,4.409089114959139,12.874264765274097,-7.2902197,0.0,5.13877683,0,1,1,1,1.1351509,1
4,AlMoO3,ABC3,114.37731397711198,4.962853092618609,11.4377313977112,-7.929805426,0.0,6.94930186,0,1,1,1,4.3080751,1
4,AlMoO3,ABC3,320.8516001512004,5.307479901573396,10.695053338373349,-8.046364926,0.7347999999999999,6.63418401,0,0,1,1,6.007178,1
1,AlMoO3,ABC3,222.55271337121223,5.101153769802972,11.127635668560613,-8.3337379745,1.4177,6.32710102,0,0,1,1,11.9998539,1